63
Config_type=train-45 Weight=1.0 Lattice="8.729399680 0.000000000 0.000000000 -4.364700850 7.559881300 0.000000000 0.000000000 0.000000000 21.982900620" Energy=-552.154833 Virial="-5.48333 -3.13919 -1.37872 -3.13919 -6.22341 -3.70387 -1.37872 -3.70387 -0.97838" Properties=species:S:1:pos:R:3:force:R:3
Si	     -0.01375      1.64842     13.93009        -0.152371      0.084897      1.465678
Si	     -1.49455      4.19192     13.98163         0.797281     -0.391371      0.744879
Si	     -2.91793      6.72745     13.99586         0.372118      0.576149      0.197348
Si	      2.89430      1.80208     14.00908         1.228943     -1.467171      0.366926
Si	      1.36935      4.23294     14.03717         1.388591     -0.104812     -0.272671
Si	     -0.05974      6.74574     14.05940         1.156451      0.962916     -0.992946
Si	      5.82305      1.64601     13.95331         0.005346      1.351320      1.193305
Si	      4.35908      4.18810     13.97881         0.484278      0.788217      1.606381
Si	      2.86934      6.72931     14.04547         0.945110     -0.756489     -0.827581
Si	      0.02644      1.65863      7.98525        -0.201868      0.470841     -0.546407
Si	     -1.43651      4.21418      7.98127        -0.111617      0.728734      0.650555
Si	     -2.88197      6.76207      7.86125        -1.165675     -2.324199      1.817282
Si	      2.90944      1.59686      7.96550        -0.091947      1.671099      1.040057
Si	      1.45152      4.22047      8.01023         1.440070     -1.113766      0.357487
Si	      0.00833      6.68129      7.99083         0.556352      0.395175      0.786961
Si	      5.84683      1.70890      7.96447        -0.098724     -1.101557      0.275497
Si	      4.37397      4.14403      7.91101        -0.253326      1.111556      1.257950
Si	      2.91313      6.71932      7.99140         0.124762     -0.502423     -1.009180
N	     -0.05255      1.68153     12.21310         0.947699     -0.022791      0.099532
N	     -1.46400      4.20497     12.24460         0.193542     -0.054103     -0.179533
N	     -2.90304      6.72103     12.25132        -0.338194      0.242389     -0.177815
N	      2.90507      1.77199     12.26350         0.266512     -0.786889     -0.338310
N	      1.46553      4.21836     12.26499        -0.605918     -0.446062      0.151488
N	      0.04432      6.73010     12.23852        -0.762456     -0.445539      1.539725
N	      5.80655      1.64465     12.24287         0.116080      0.480765     -1.075229
N	      4.42656      4.19634     12.28219        -0.662032     -0.041082     -1.894740
N	      2.89639      6.70850     12.24485         0.235489      0.026510      0.347335
N	      0.02013      1.70675      9.72214        -0.301303     -0.495597      0.262557
N	     -1.45554      4.24861      9.74689         0.052580     -0.493373     -0.370170
N	     -2.84743      6.73599      9.68566        -0.819851      0.196134      0.206718
N	      2.86487      1.59334      9.77285         0.755606      0.876521     -1.234305
N	      1.40306      4.23704      9.76355         0.869224     -0.709534     -0.271555
N	     -0.03074      6.71468      9.78766         0.275825     -0.146425     -1.195848
N	      5.81468      1.61191      9.72611         0.261150      1.031902     -0.045260
N	      4.38100      4.21395      9.74220        -0.176245     -0.382399     -1.031348
N	      2.90693      6.70579      9.70182         0.202390      0.047806      1.510559
N	      7.27384      2.47248     14.51638         0.154066      0.962548     -0.538460
N	     -2.87532      5.08193     14.48133        -1.161090     -0.843148      0.491376
N	      4.36048      7.52587     14.50984        -0.219211      0.797008     -0.141222
N	      1.41573      2.52315     14.48655        -0.607817      0.741354      0.381584
N	     -0.04462      5.09826     14.56779        -0.386814     -1.061367     -0.178171
N	      2.88710      0.08143     14.49915        -0.217960     -0.159766      0.074547
N	      4.44138      2.54691     14.60946        -1.438412     -0.182041     -1.044918
N	      2.89168      5.03699     14.52605        -0.295865     -0.232958     -0.023456
N	      5.84052      0.04107     14.53525        -1.432840     -1.278629      0.271063
N	     -1.41690      2.59367      7.48802        -0.346983     -2.222898     -0.410396
N	     -2.89332      5.02339      7.44767        -0.078931      0.254608     -0.286272
N	      4.38148      7.52293      7.34573        -0.588836      1.246919      0.804277
N	      1.47399      2.53702      7.51163         0.208149     -0.898392     -0.362781
N	      0.05245      5.00634      7.50183        -1.504501      1.070916     -0.693407
N	     -1.43097      7.51072      7.44232         0.709636      0.494599     -0.813143
N	      4.35204      2.46172      7.43506         0.255752      0.297963      0.077139
N	      2.91134      5.02016      7.47679         0.164559      0.133982     -0.163988
N	      1.43864      7.54108      7.45931         0.583415      0.494399      0.015714
Mo	     -1.46498      7.53873     11.04580         0.503941      1.007601     -0.928851
Mo	      1.45454      2.51406     10.98948        -0.315511      0.650076      0.239527
Mo	     -0.00752      5.02358     10.99895         0.205399      0.972369      0.731781
Mo	      1.45299      7.53078     11.00166         0.362173      0.476216     -0.638493
Mo	      4.36752      2.53175     10.96244         0.204733     -0.726861      0.834448
Mo	      2.90136      5.00254     11.01916         0.698421      1.413471     -0.668284
Mo	      0.01087      0.02141     10.98753        -0.333891     -1.115691     -0.873841
Mo	     -1.42851      2.53916     10.99348        -1.705339     -0.646941     -0.832225
Mo	     -2.89820      5.08128     10.97512        -0.350110     -0.902684      0.261135
63
Config_type=train-42 Weight=1.0 Lattice="8.729399680 0.000000000 0.000000000 -4.364700850 7.559881300 0.000000000 0.000000000 0.000000000 21.982900620" Energy=-546.751439 Virial="-6.08951 -4.67706 -5.59893 -4.67706 -10.04658 8.21947 -5.59893 8.21947 -1.30950" Properties=species:S:1:pos:R:3:force:R:3
Si	      0.09514      1.60609     14.02753         0.605486     -2.112938     -1.000280
Si	     -1.42950      4.06212     13.89670         0.315978      1.637177      1.566720
Si	     -2.75565      6.76422     14.00270        -1.077442     -1.329158     -0.239690
Si	      2.91910      1.79642     14.07991         0.077246     -0.866613      1.323687
Si	      1.33682      4.20657     14.11769         2.090761     -1.390488     -0.731429
Si	     -0.06207      6.70595     14.12484         2.698266     -0.951329     -0.551365
Si	      5.84233      1.61772     14.11678         0.325690      0.206842     -1.919215
Si	      4.43308      4.22068     13.96549         0.634875      1.986769      1.155509
Si	      2.86368      6.55870     13.98938         1.988775      1.054823     -0.667702
Si	     -0.00695      1.74349      7.98358        -1.073699     -0.691746     -2.030559
Si	     -1.52460      4.27580      7.90713         0.992578     -0.269673      0.466616
Si	     -2.87795      6.76091      7.85091        -0.481890      1.087382     -0.620504
Si	      2.87108      1.71079      8.07792         0.753838     -0.763148     -2.250626
Si	      1.49893      4.17402      8.00700         0.109019      0.320337     -1.105218
Si	      0.06459      6.71041      7.95378        -2.523786      0.954889      1.317805
Si	      5.82426      1.71724      8.14142        -0.371819      1.142436     -6.338423
Si	      4.37057      4.19349      7.88012        -1.376672      0.559766      0.591630
Si	      2.80859      6.76250      8.02193         3.193782     -0.918921     -3.080145
N	     -0.11785      1.69210     12.24786         1.764019     -0.532635     -1.225979
N	     -1.48142      4.15260     12.19341         0.010886      0.477128     -0.812333
N	     -2.84227      6.75742     12.24767        -0.398723     -0.299458     -1.048615
N	      2.80797      1.72153     12.36744         1.029549     -0.908555     -1.406570
N	      1.44770      4.12079     12.35581        -0.311875      0.481562     -1.744247
N	      0.09580      6.69119     12.33848        -1.105573     -0.720711     -0.406735
N	      5.70317      1.53964     12.29840         0.680644      2.226167     -0.304530
N	      4.48479      4.33651     12.27352        -1.403733     -0.749620     -1.598976
N	      2.89727      6.73540     12.16330         0.452229      0.315444      2.015782
N	     -0.01532      1.72599      9.68896        -0.422438     -0.077561      1.186852
N	     -1.56801      4.24897      9.67053         1.081854     -0.554825      0.533987
N	     -2.76090      6.70707      9.56659        -1.241021      0.304097      2.975299
N	      2.81867      1.52298      9.77550         1.134813      1.623501      1.035943
N	      1.48798      4.23585      9.74044         0.383229     -1.072907      0.888685
N	      0.02212      6.76564      9.78309         0.240076     -1.502050     -0.646411
N	      5.74927      1.74688      9.71816        -0.204792     -0.413340      5.175320
N	      4.33613      4.32121      9.77006        -0.124804     -1.153433     -1.891691
N	      2.92957      6.74434      9.68876        -0.378957     -0.197247      1.925602
N	     -1.32675      2.36305     14.36789        -3.482196      2.266658      1.975415
N	     -2.71147      5.11951     14.43879        -2.162843     -3.033994      0.462671
N	      4.42651      7.35337     14.35653        -0.979867      2.582041      1.258316
N	      1.41917      2.56542     14.73662         0.477605     -1.903741     -1.211326
N	     -0.06023      4.97204     14.63774        -0.595441      1.131564     -0.597013
N	     -1.38959      7.54084     14.76140        -0.769694      2.577607     -1.287567
N	      4.43689      2.63104     14.54440         0.207749     -2.464767      0.507257
N	      2.87808      4.87261     14.57003         0.803485      2.233777     -0.500611
N	      1.55075      7.51718     14.56482        -1.987561     -0.858912      0.578708
N	     -1.50668      2.63094      7.42380         0.350474     -2.003893      0.783248
N	      5.75976      5.09132      7.35264         0.933067     -0.238907     -0.150582
N	     -0.00311      0.05322      7.38986        -0.883240     -0.056508      0.947229
N	      1.42394      2.51669      7.39793         1.113423      0.560319      1.041185
N	      0.04758      5.03211      7.60448        -1.042662      0.353326     -1.441745
N	      2.99029      0.07118      7.42886        -0.643889     -1.329740      0.030645
N	      4.35570      2.48050      7.43638        -0.160815      1.100259      1.287703
N	      2.88999      5.04674      7.29096        -0.182703      0.358563      2.001051
N	      5.77578      0.07976      7.56634         1.324009     -0.278646     -0.964284
Mo	     -1.41068      7.44903     11.05433        -0.052411      3.275521     -1.088888
Mo	      1.44262      2.44191     11.00146        -0.974423      2.382347      0.961638
Mo	      0.00622      4.96093     10.98374         0.318873      1.808411      0.804451
Mo	      5.82416      0.00106     10.99391        -0.682122      0.123060      0.056663
Mo	      4.32260      2.56938     11.00601        -0.270445     -0.859122      0.965730
Mo	      2.92200      5.10781     11.03986        -0.482527     -2.180673     -1.225204
Mo	      0.01867      0.03097     10.88736         0.279271     -0.222625      1.800704
Mo	      7.18446      2.54833     10.95561         1.104507     -1.133183      0.605417
Mo	     -2.90644      5.12401     10.90380         0.374006     -1.090707      1.860995
63
Config_type=train-16 Weight=1.0 Lattice="8.729399680 0.000000000 0.000000000 -4.364700850 7.559881300 0.000000000 0.000000000 0.000000000 21.982900620" Energy=-552.033399 Virial="-5.29693 2.47784 4.15395 2.47784 -6.43224 -3.14405 4.15395 -3.14405 -1.53833" Properties=species:S:1:pos:R:3:force:R:3
Si	     -0.01475      1.69651     13.99784         0.526902     -0.104863      0.421519
Si	     -1.43071      4.17173     14.03529        -1.159002      0.827695     -0.108032
Si	     -2.90933      6.73999     14.02148        -0.465515     -0.187519      0.310805
Si	      2.89428      1.66300     14.00511        -0.910219      1.140729      0.080899
Si	      1.45096      4.23372     13.99075        -0.616556     -0.427500     -0.586393
Si	      0.03122      6.76612     13.95314        -0.624324     -0.631191      0.058463
Si	      5.80595      1.70247     14.01329        -0.489598      0.883737      0.431999
Si	      4.33908      4.19650     14.02298         0.239437      0.023538      0.419324
Si	      2.90398      6.73928     14.03553         0.032288     -0.506216     -0.744519
Si	      0.09361      1.73061      7.94140        -2.063649     -1.305447      1.046203
Si	     -1.43248      4.24236      7.96893         0.590468     -1.051943      1.354955
Si	     -2.89060      6.70666      8.09521        -1.408523     -0.213010     -1.071174
Si	      2.86981      1.64026      7.96417         1.747419     -0.254093     -0.217291
Si	      1.47149      4.17743      7.94904         0.707766      1.102660     -0.089880
Si	      0.03772      6.69590      7.95490        -1.215910     -0.167639      0.000379
Si	      5.86305      1.66044      7.91971        -0.344600      0.090730     -0.203366
Si	      4.41117      4.14012      7.97602        -1.040250     -0.052787      0.216194
Si	      2.87129      6.75176      7.96427         1.796689     -0.640441      0.143884
N	      0.00512      1.67878     12.25128        -0.188440     -0.158111      0.336542
N	     -1.44394      4.19420     12.26550        -0.126142     -0.340759      0.055242
N	     -2.90762      6.73737     12.28592        -0.280504     -0.326818     -0.833798
N	      2.87965      1.68592     12.26571         0.424582      0.078040     -1.044568
N	      1.44147      4.25574     12.18757        -0.058553     -0.362027      1.375135
N	      0.00081      6.76075     12.21643        -0.215885      0.084889     -0.369193
N	      5.81416      1.63342     12.26981         0.352100      0.961062     -0.459030
N	      4.34564      4.15885     12.27084         0.208035      0.173951     -0.507428
N	      2.92035      6.67460     12.24421        -0.517975      0.312172      0.587830
N	      0.02265      1.68714      9.75109         0.168839     -0.283407     -0.548354
N	     -1.43833      4.25116      9.79467        -0.135075     -0.771414     -1.400722
N	     -2.88818      6.72426      9.80773        -1.128286     -0.468326     -0.214914
N	      2.86166      1.72174      9.71707         0.433851     -0.287143      0.174737
N	      1.39155      4.18017      9.70563         0.477571      0.190291      0.084108
N	      0.07807      6.70983      9.68224        -1.116801      0.476814      1.120585
N	      5.86933      1.61196      9.65176        -0.177092      0.813843      1.526946
N	      4.41267      4.17192      9.74844        -0.502629     -0.149878     -0.311725
N	      2.85458      6.70321      9.73755         0.720034      0.339337     -0.286583
N	      7.29261      2.48043     14.59389        -1.046034      1.217565     -0.516366
N	      5.79867      5.07504     14.56574         0.294533     -1.074432     -0.370971
N	      8.67736      0.03606     14.55362         1.399165     -0.465042     -0.173707
N	      1.42201      2.56899     14.53804         0.283786     -0.812267     -0.481400
N	     -0.01908      5.08382     14.46788         0.751428     -0.045253      0.411715
N	      2.93875      0.00812     14.44637        -0.618975     -0.270449      1.015389
N	      4.26390      2.51386     14.60570         2.285532      0.354966     -0.710359
N	      2.87768      5.03375     14.51923         0.466935      0.927739      0.193331
N	      5.82804      0.05697     14.45729        -0.246799     -1.265212      0.916113
N	     -1.39660      2.55936      7.49933        -0.350262     -0.436923     -0.533219
N	     -2.89249      5.01514      7.60578        -0.197833      0.809949     -1.316758
N	      0.03589      0.03045      7.48494        -0.354476     -0.461602      0.365248
N	      1.48985      2.52124      7.36640         0.392794      0.344326      0.100749
N	      0.01287      5.03131      7.41395         0.418887     -0.064970      0.058619
N	     -1.48106      7.47044      7.51157         0.801953      1.362203     -0.370399
N	      4.37750      2.44013      7.37293        -0.194470      0.823208      0.830623
N	      2.98565      5.05712      7.46245        -1.081486     -0.682292      0.195898
N	      1.41903      7.52237      7.39953         1.322209      0.981579     -0.393921
Mo	      2.86810      0.01797     10.95491         1.748178      0.290128      1.495524
Mo	      1.43536      2.53301     11.01396         0.267454      0.083895     -0.852107
Mo	     -0.02057      5.09399     10.98396         0.601955     -1.116267      0.014547
Mo	      5.82629      0.02635     10.98874        -0.128126     -1.359752     -0.461154
Mo	      4.42014      2.50600     10.99007        -1.823221     -0.294411     -0.235815
Mo	      2.88972      5.03518     10.95154         0.553998     -0.590333      0.549555
Mo	      4.33115      7.53361     11.04191         1.132350      0.491102     -1.284314
Mo	      7.30080      2.47325     10.98336        -0.633723      1.556288      0.154396
Mo	      5.81230      5.00853     11.02167         0.313792      0.887302      0.650002
63
Config_type=train-9 Weight=1.0 Lattice="8.729399680 0.000000000 0.000000000 -4.364700850 7.559881300 0.000000000 0.000000000 0.000000000 21.982900620" Energy=-551.698429 Virial="-3.60517 -0.08954 3.44898 -0.08954 -7.99499 -7.18801 3.44898 -7.18801 0.88293" Properties=species:S:1:pos:R:3:force:R:3
Si	     -0.00601      1.71569     14.00894        -0.019166     -0.951197     -0.078196
Si	     -1.48843      4.19977     14.03287         0.084144      0.914881      0.142537
Si	     -2.99662      6.75824     14.05918         2.190974     -0.002033     -0.497531
Si	      2.91128      1.74933     13.98511        -0.011140     -1.226080      0.465493
Si	      1.43592      4.23525     14.00541         0.053008     -1.490050      0.177691
Si	     -0.01776      6.73282     13.98047        -1.112640      0.183768     -0.035370
Si	      5.80964      1.68415     13.99508        -0.226513      0.648014      0.286967
Si	      4.36601      4.19518     14.01606        -0.815980      0.185985     -0.224628
Si	      2.86764      6.65863     13.98991         0.214356      1.919596      0.421208
Si	      0.02856      1.60132      7.98430        -0.417906      0.280776     -0.436313
Si	     -1.42138      4.21040      8.02025        -1.102857     -1.497955     -0.404317
Si	     -2.84736      6.73639      8.07094        -0.061736     -0.442697     -0.978104
Si	      2.90538      1.72339      7.98285         0.394373     -0.797267     -0.488443
Si	      1.43104      4.23247      7.96318        -0.245985     -1.655224     -0.701935
Si	     -0.00382      6.65028      7.97683         0.728422      2.274915     -0.468529
Si	      5.85016      1.69389      7.90230        -0.405890     -2.125588      1.938721
Si	      4.38707      4.20236      7.93707         0.356857      0.149714      0.573539
Si	      2.88176      6.66538      7.98893         1.480978     -0.119477     -0.243258
N	      0.04090      1.74607     12.23622        -0.743172     -0.906841      0.775348
N	     -1.45925      4.24596     12.31415         0.033013     -0.490770     -1.808211
N	     -2.88443      6.71659     12.28528        -0.440702      0.303699     -0.315550
N	      2.82713      1.65040     12.26281         1.353592      0.503864     -1.475589
N	      1.43639      4.17262     12.27281         0.313668      0.653304     -1.361903
N	     -0.03293      6.71774     12.20957         0.365660      0.071493      0.100839
N	      5.85142      1.70371     12.25937        -0.559694     -0.211792     -0.705765
N	      4.38415      4.29031     12.22376        -0.654770     -1.590408      1.304147
N	      2.88237      6.71756     12.25674         0.484216     -0.212360     -0.253974
N	      0.02273      1.62426      9.74607        -0.143534      0.675745     -0.156827
N	     -1.47534      4.18280      9.76777         0.360423      0.252849     -0.400204
N	     -2.92027      6.68257      9.80881        -0.033849      0.411661     -0.896992
N	      2.88867      1.67219      9.74055         0.206749      0.310835     -0.682976
N	      1.52100      4.25386      9.68983        -1.243324     -0.692804      0.778478
N	      0.07728      6.68994      9.72892        -1.097799      0.154746     -0.628214
N	      5.84210      1.62096      9.72455        -0.181030      0.840221     -0.135512
N	      4.32725      4.17645      9.76245         0.873982      0.512555     -1.653304
N	      2.86323      6.69452      9.74411         1.110526      0.180620     -0.090740
N	     -1.46265      2.54385     14.49575        -0.245194     -0.635421      0.582623
N	      5.76389      5.05450     14.52620         0.927760      0.199232      0.478547
N	      4.30333      7.54793     14.57775        -0.510846      0.906211     -0.570625
N	      1.45949      2.50118     14.49438        -0.610970      1.507852      0.572660
N	     -0.00936      5.02090     14.49867        -0.488425      1.199791      0.516858
N	      2.90138      0.08793     14.48304        -0.315171     -1.796112      0.356010
N	      4.34639      2.53608     14.61674         0.605536      0.202051     -1.238010
N	      2.87617      5.04271     14.55860         0.427764     -0.677499     -0.159059
N	      5.78609      0.02818     14.44075         0.432851     -1.080207      0.757839
N	      7.26924      2.46158      7.49312         2.044161      1.650743     -0.364916
N	     -2.82091      5.09366      7.47845        -1.425526     -1.271010      0.264371
N	      4.41450      7.43751      7.49900        -0.906293      1.455767      0.100579
N	      1.43877      2.51779      7.38725        -0.015206      0.005603      0.938708
N	     -0.05691      5.02506      7.37169         1.463613     -0.124075      0.623324
N	      2.95032      0.02067      7.44346        -0.310260     -0.116420      0.839502
N	      4.42200      2.48729      7.45619        -1.393769      1.357991     -0.242947
N	      2.87123      4.96977      7.38705         1.279006      1.148550      0.375846
N	      1.51659      7.54189      7.48346        -1.692623     -0.249257     -0.556906
Mo	     -1.46266      7.55001     10.93057         0.545231      0.193379      2.584402
Mo	      1.45108      2.51276     10.99446         0.335370      0.843345     -0.467469
Mo	     -0.01354      5.06003     10.96971         0.791926     -1.130264      1.181199
Mo	      1.48083      7.53888     10.98850        -1.051641      0.903722      0.441876
Mo	      4.36900      2.51541     10.96585        -0.163125     -0.344370      1.258619
Mo	      2.91871      5.05101     10.96637        -0.528156     -0.268125      1.251009
Mo	      0.00250      0.01916     11.03706        -0.083826     -1.012324     -0.463547
Mo	     -1.44488      2.51995     11.00270        -0.101162      0.089088     -0.066479
Mo	     -2.90312      5.04225     11.04733        -0.098279      0.025063     -0.836600
63
Config_type=train-22 Weight=1.0 Lattice="8.729399680 0.000000000 0.000000000 -4.364700850 7.559881300 0.000000000 0.000000000 0.000000000 21.982900620" Energy=-551.558925 Virial="-6.45018 2.70595 3.90311 2.70595 -4.21180 -4.86984 3.90311 -4.86984 0.06164" Properties=species:S:1:pos:R:3:force:R:3
Si	     -0.02652      1.64028     14.01345        -0.456298      1.152149     -0.143083
Si	     -1.43796      4.18110     13.98575        -0.965692      0.277176     -0.157276
Si	     -2.85066      6.74428     13.94163        -1.323357      0.355283      0.450392
Si	      2.93324      1.77988     14.03812        -0.908963     -1.150728     -0.309791
Si	      1.45100      4.19629     14.02555        -1.177992      0.501146     -0.682369
Si	     -0.02753      6.69645     14.06000         0.333367      1.230453     -0.497825
Si	      5.79204      1.69850     14.07259        -0.739994     -1.230834     -0.781478
Si	      4.34189      4.25685     13.94542         0.729893     -0.616597      1.155923
Si	      2.91220      6.69196     14.02602        -0.550145      0.688424     -0.213821
Si	      0.01973      1.74099      7.97340        -0.706789     -1.129663     -0.915230
Si	     -1.43725      4.22264      7.93487         0.263830      0.487791      0.357977
Si	     -2.97425      6.70157      7.93610         1.071092      0.233575      0.195710
Si	      2.97259      1.66935      8.01431        -0.763638     -1.022346     -0.214310
Si	      1.53366      4.13828      8.03809        -0.840343      1.780078     -0.664295
Si	      0.05089      6.70404      8.04189        -1.330834     -1.609575     -0.603186
Si	      5.81348      1.62963      7.92642         0.483690      1.808024      0.511397
Si	      4.35270      4.24307      7.96829         1.388373     -1.523348      0.507918
Si	      2.93283      6.72576      7.95243        -0.036217      0.384671      0.152918
N	     -0.04206      1.78376     12.26832         0.045377     -1.357925     -0.934610
N	     -1.48301      4.18309     12.21871         0.459575     -0.137883      0.050626
N	     -2.81707      6.81126     12.20455        -1.325929     -0.890604     -0.237495
N	      2.88554      1.71679     12.26106         0.463389     -0.449609      0.307256
N	      1.50518      4.10771     12.22316        -0.505982      1.574171      1.783171
N	     -0.05254      6.66210     12.26902         0.982151      0.283868      0.500906
N	      5.74219      1.64520     12.28013         0.590567      0.700197      0.148014
N	      4.36360      4.22825     12.25678        -0.398751     -0.087524     -1.463833
N	      2.97256      6.75349     12.23686        -0.895071     -0.450394      0.919883
N	     -0.04313      1.67344      9.67833         0.371727      0.058919      1.533688
N	     -1.49617      4.18725      9.71933         0.619267      0.487865     -0.310473
N	     -2.92373      6.66375      9.70829        -0.175362      0.847184     -0.006875
N	      2.92524      1.67193      9.76604         0.000011      0.205687     -0.247459
N	      1.46051      4.11933      9.77274         0.345778      0.818721     -0.429743
N	      0.16400      6.71229      9.75754        -1.845204     -0.564892      0.769750
N	      5.77120      1.66960      9.67805         0.180694     -0.069652      1.574777
N	      4.36584      4.17193      9.73378        -0.417296      0.459849      0.017693
N	      2.88775      6.67040      9.70932         0.356395      1.022647      0.580506
N	      7.20616      2.50923     14.50647         1.833352      0.391478      0.525937
N	      5.80547      5.06108     14.40118         0.714921      0.345663      0.784232
N	      4.34514      7.55856     14.53960         0.925217     -0.705223     -0.316739
N	      1.39396      2.56301     14.50096         0.739697     -1.272090      0.638633
N	     -0.03459      5.05833     14.61239         0.483160     -1.168505     -0.825315
N	      2.89788      0.06079     14.50833         0.584016      0.100439      0.352826
N	      4.37295      2.61333     14.56848        -0.348637     -0.672061     -0.148940
N	      2.88567      4.99545     14.52411         0.266617      1.243353      0.102842
N	      1.44319      7.52481     14.61722        -0.004150      0.497044     -0.872602
N	     -1.45428      2.56794      7.47464        -0.067468     -1.371229     -0.604367
N	      5.79565      5.01706      7.41400         0.571855      0.650803      0.041469
N	     -0.00915      0.04792      7.33594        -0.139144     -0.208497      1.060283
N	      1.49657      2.51197      7.52899         0.681115     -0.591815     -0.784381
N	      0.10928      5.01396      7.43225        -1.106768      0.079892      0.942176
N	     -1.44471      7.46980      7.53591         0.323689      1.544457     -0.227142
N	      4.38189      2.54878      7.48617        -0.259129     -0.678900     -0.507443
N	      2.96112      5.05379      7.46792        -1.345237     -0.150412     -0.249246
N	      1.43162      7.51946      7.52149         1.444490      0.859188     -1.452309
Mo	      2.96028      0.00044     10.95988        -0.761121     -0.468527      0.404546
Mo	      1.45352      2.51411     11.02041        -0.396348     -1.216055     -1.061656
Mo	      0.04997      4.98215     11.01905        -1.741716      1.087112     -0.855552
Mo	      5.80850      0.02335     11.04437         0.898375     -1.041661     -1.086360
Mo	      4.33859      2.53165     11.02249         0.543054     -0.297164     -0.858093
Mo	      2.89623      5.04538     10.97498         0.947468     -0.475011      0.451234
Mo	     -0.01661      0.02998     10.97140         0.922433     -0.320815     -0.123478
Mo	      7.23495      2.51502     10.92194        -0.192115      0.008839      1.616740
Mo	      5.78891      5.02980     10.97064         1.161056      0.763395      0.347352
63
Config_type=train-4 Weight=1.0 Lattice="8.729399680 0.000000000 0.000000000 -4.364700850 7.559881300 0.000000000 0.000000000 0.000000000 21.982900620" Energy=-552.073383 Virial="-4.40296 -2.13062 -2.09221 -2.13062 -5.57415 -2.17135 -2.09221 -2.17135 -0.73070" Properties=species:S:1:pos:R:3:force:R:3
Si	      0.00248      1.69709     14.03363        -0.079945     -0.262250     -0.539841
Si	     -1.47336      4.18666     14.01379         1.084830      0.858138      0.216723
Si	     -2.96015      6.70301     14.00683         1.389257     -0.590532      0.156807
Si	      2.89092      1.60752     14.03063         1.266457      1.147510     -0.719688
Si	      1.46971      4.21200     14.01009         0.333381     -0.363439     -0.333778
Si	      0.01999      6.75459     14.00596        -0.619982     -1.084362     -1.097827
Si	      5.82424      1.69162     14.04105         0.172590      0.090024     -0.902245