 -6.9003640e-05   7.6383949e-06
 -1.6050148e-04   1.1019813e-05
  3.8181337e-05   5.9948861e-06
  7.0676633e-06   2.7056178e-06
  3.0846299e-05   3.3887311e-06
  3.6328947e-05   5.3113517e-06
 -1.2979236e-05   4.4180728e-05
  1.0760092e-05   1.1377168e-06
 -6.6726179e-06   6.0591810e-06
 -1.8891044e-05   1.8196407e-06
 -2.1950535e-05   1.3623906e-05
  1.0300422e-04   7.1559543e-07
  3.3820652e-05   2.8114757e-06
  5.0786988e-05   8.9846953e-06
  2.2384429e-06   1.0896826e-05
  1.5362322e-05   1.8168123e-05
  8.9394860e-05   6.9753887e-06
  2.9920731e-05   1.1107566e-05
  1.1315304e-04   2.3162171e-05
 -4.8224003e-05   2.2520673e-05
 -7.8038911e-06   6.2926365e-06
  1.2321148e-05   4.4146491e-06
 -1.0887830e-04   7.0756446e-06
  4.7109734e-05   5.9707941e-06
 -3.2663223e-04   5.2655541e-06
 -1.3343857e-05   2.3444627e-06
  1.0181141e-05   2.4787546e-06
 -3.5268735e-05   6.4790388e-06
 -2.6295105e-05   2.5880656e-05
 -6.6507302e-05   2.0406574e-07
 -2.7693559e-05   5.2530236e-06
  2.2509979e-04   7.7390259e-06
  2.4338360e-06   2.4360701e-05
 -1.8896313e-05   7.7356863e-06
 -6.9053684e-05   1.8277933e-05
 -5.1077146e-05   3.3281365e-06
 -1.3134268e-04   1.8434907e-06
 -2.8352621e-05   2.5573745e-06
  4.9617294e-05   1.0618319e-05
 -7.7194920e-05   1.7509601e-05
  1.7214379e-05   4.2039383e-06
  6.4625507e-05   3.9264319e-06
  7.5377939e-05   8.1960843e-06
  1.6372290e-04   6.3338043e-06
  1.1899462e-05   2.3731427e-06
  1.3401703e-05   1.1309016e-05
 -7.8323210e-05   1.1193898e-05
 -2.0831746e-04   8.1506350e-06
  4.3472581e-05   8.9351015e-06
  1.7370292e-05   7.4195887e-06
 -1.8540431e-05   6.0306279e-06
  2.3393573e-05   4.8078132e-06
 -1.1919996e-05   5.1775296e-06
 -1.5883346e-05   5.5926130e-06
  1.7458924e-04   1.3181415e-05
 -1.6208051e-05   5.7210846e-06
  3.5352419e-05   1.0374803e-05
  2.8839606e-05   1.8528259e-05
 -2.6238957e-05   1.4091123e-06
  9.9280522e-05   2.3566033e-06
 -5.4329255e-05   3.3117863e-06
  8.8341124e-02   4.0574373e-06
 -9.8122656e-01   4.9226073e-05
  4.7790280e-01   2.0639058e-05
 -1.1333637e-02   1.2613335e-05
  2.0266366e-01   7.3120063e-05
 -3.3142734e-02   2.3649533e-05
 -1.0338720e-01   8.3152088e-07
  5.8656287e-01   5.8379810e-06
  9.1243818e-02   3.2173655e-05
 -1.5142529e-01   4.4858240e-05
  2.4369426e-01   1.9885492e-05
 -6.4082709e-03   7.5289705e-07
  3.8396960e-01   1.4331434e-06
  6.1836989e-05   2.3101566e-05
 -2.8558876e-03   1.6672160e-06
 -9.6302349e-03   1.4305101e-05
  2.2744981e-04   7.6330125e-06
  1.2037684e-02   1.9723597e-05
 -5.8389187e-02   2.2649756e-05
  2.0994521e-04   7.3329920e-06
  7.5860204e-05   3.6877586e-06
 -1.8720530e-04   3.9720462e-06
  3.3758268e-01   3.0213496e-05
  3.2627999e-04   1.6852853e-05
 -1.9616466e-05   1.7981771e-06
  1.7055379e-04   1.2403124e-05
  9.5724070e-05   3.8073645e-06
  8.8688545e-02   5.2092923e-06
 -2.6842012e-04   7.4091645e-06
 -8.6449953e-05   1.3892253e-05
  7.2667331e-01   9.7028951e-06
 -1.0249392e-01   5.3085764e-06
 -8.0504072e-01   4.3092419e-05
 -1.4334482e+00   1.1120654e-05
 -2.6312993e-05   2.6966301e-05
  5.1172201e-02   5.8651844e-06
 -8.4239346e-01   7.0017577e-06
 -2.1562459e-01   9.0638750e-06
 -7.4709892e-02   1.3833442e-04
 -3.5113881e-05   1.1802144e-05
  4.2524186e-01   5.1044167e-06
  6.1582202e-01   3.1720272e-05
 -1.5550889e+00   6.3759187e-05
  6.1338498e-05   4.2367074e-06
  3.8474876e-01   2.4393987e-05
 -2.5570519e-02   1.7507451e-06
  5.9358925e-05   1.0467688e-05
  9.6506745e-05   5.6499398e-06
  8.9453104e-05   2.3927716e-05
 -1.4380941e-02   6.8578152e-06
 -3.7197408e-01   9.4605593e-06
  6.3368264e-03   9.0234007e-06
  4.7775009e-01   8.4909116e-06
  4.7210848e-05   3.3006090e-05
  3.5461804e-01   1.2961822e-05
  4.7058751e-05   4.4173507e-06
  9.2319131e-02   2.7965498e-05
 -2.3842852e-01   1.1413644e-05
 -4.1262613e-04   2.3382583e-05
  8.1472324e-05   2.0140691e-05
  1.3780956e+00   2.2426595e-05
 -5.0820198e-02   2.3644574e-05
  2.4245771e-02   2.5213732e-05
 -4.4441676e-01   1.0508345e-05
  2.1916363e-01   2.5323623e-05
  1.9750655e-01   2.2978349e-05
  1.1131911e-01   3.2391436e-05
  2.2692288e-01   1.2214465e-05
 -6.1370647e-01   5.9960304e-05
  3.3767176e-01   2.1439873e-05
 -1.4171557e-04   3.2633006e-06
 -7.9254508e-01   4.1608801e-06
  5.2403496e-03   2.1642343e-05
  1.2352179e-02   3.4411139e-05
  2.6872689e-01   5.3724416e-06
  8.7150954e-02   2.5715839e-05
  5.0025038e-02   7.1287031e-06
  5.9541446e-01   2.5103236e-07
  8.1455804e-02   2.3795335e-06
  6.6391504e-03   4.4731232e-06
 -1.7051507e-02   5.5874725e-06
 -1.7562148e-04   1.4030559e-06
 -9.0715876e-03   1.5691270e-05
 -1.8191929e-01   5.0876797e-06
 -2.6115206e-01   5.8923841e-05
 -1.7626851e-03   1.4316889e-05
  8.1172846e-02   3.1274198e-05
 -9.9311641e-05   1.0480398e-06
  5.0223537e-04   1.3805383e-05
  8.0571044e-05   1.9212255e-05
 -5.8314806e-01   5.3081712e-06
 -1.5731171e-01   1.0592638e-05
  2.7195353e-02   2.0486526e-07
  6.1533058e-01   1.7026316e-06
  1.7928841e-02   8.1427825e-05
 -5.0165492e-01   1.1535821e-05
  5.3888297e-01   4.6766381e-05
 -2.8336993e-01   9.8318069e-06
  3.2179276e-05   4.9786941e-06
  1.9921158e-01   8.0836813e-05
 -5.3251421e-01   5.3921904e-05
 -5.1708090e-01   1.2154173e-05
 -1.4131581e+00   6.0885330e-05
 -4.6496436e-01   4.2123887e-05
 -8.8177109e-03   1.3248783e-06
 -1.9659321e-01   7.3409547e-06
  7.3095523e-02   8.1835526e-05
  6.6189307e-01   4.3136886e-05
  4.2774129e-01   3.7862501e-05
 -8.4732167e-02   6.6499520e-06
  4.4728836e-01   1.0177947e-05
 -1.3551614e-01   1.6149901e-05
 -9.2635739e-01   1.7492153e-05
 -2.2329766e-02   3.9596045e-05
 -1.3874845e-01   3.6821453e-05
  2.4680491e-01   1.5703120e-04
 -1.8556319e-06   6.1313622e-06
 -3.6656266e-01   8.2096674e-05
  3.3558631e-01   1.8022630e-04
  1.9160332e-05   1.7951028e-05
  6.9871050e-05   8.0490281e-06
  1.8836026e-05   5.2865871e-06
  5.5656715e-06   1.8314956e-06
  8.8054048e-06   1.3187654e-05
  2.6653061e-06   6.3157941e-06
  2.1462160e-04   5.0123845e-07
  1.3831327e-05   3.1475506e-06
 -2.4547942e-05   5.6872943e-07
  1.6638534e-05   1.1296908e-05
 -1.0142654e-04   3.2097123e-06
  1.1260741e-04   4.3718683e-06
  3.9165866e-06   1.9847573e-06
  1.8196306e-05   4.1125923e-06
  1.1432954e-04   5.4054517e-06
 -4.8992206e-06   1.0157042e-05
  9.1022361e-05   4.0481041e-06
  6.1577121e-06   2.1195750e-05
  1.0849058e-04   1.1524214e-05
  3.3078624e-05   1.3038460e-05
 -1.5240686e-04   2.4282946e-05
 -1.6033009e-05   5.0105737e-06
 -6.4435648e-05   2.7211668e-06
 -4.9948449e-05   1.6010137e-06
  5.4212895e-05   3.8120709e-06
 -1.1292671e-04   7.4201021e-06
  2.0380523e-05   7.7046534e-06
  7.0768151e-06   7.4443792e-06
 -8.1716433e-05   8.0723527e-07
 -4.0111554e-05   5.6187503e-07
 -1.4870977e-01   5.0995499e-05
 -5.3752948e-02   4.2369529e-06
 -8.0966687e-01   1.3195054e-05
  6.1537576e-01   7.6235037e-06
 -2.5964457e-01   1.3394678e-06
 -3.7814785e-05   1.2743683e-05
  4.5026192e-01   1.4416231e-05
 -1.2894596e-01   1.4632000e-05
 -9.4764626e-01   4.5513839e-06
  6.7509520e-01   5.0889299e-05
 -2.9059851e-01   1.1179247e-05
  5.5200189e-01   3.0560703e-05
  4.5615813e-01   5.4629586e-06
 -1.1100641e-01   6.8136671e-07
 -2.4104121e-01   1.5652169e-05
  3.0317608e-01   9.2894851e-07
 -2.1832602e-01   1.1902083e-06
 -6.3416368e-01   2.1486358e-05
  5.5359918e-01   1.2864265e-07
 -8.1759408e-02   2.1039346e-05
 -2.6246819e-01   6.7780906e-07
 -1.6965142e-01   3.5763203e-06
 -4.5724678e-01   1.8569075e-05
  6.3367379e-01   4.6666187e-06
 -7.8510398e-01   2.5001005e-05
  6.9377685e-01   1.1888930e-05
  2.6925197e-01   5.4415879e-05
  9.0981722e-01   2.3163278e-05
 -2.9096472e-01   2.7441397e-06
 -5.8513619e-05   1.0649904e-05
  4.5749373e-05   1.4449451e-05
  1.1156899e-04   3.2620060e-06
 -1.7014920e-05   3.2796488e-06
  5.3977281e-05   6.9681068e-06
  2.2105018e-05   1.4938877e-06
  1.0856181e-05   1.1821690e-05
  7.5106611e-05   1.2559336e-05
 -2.2340215e-05   6.9873217e-06
  3.1994798e-05   4.9083360e-06
  1.2353821e-04   2.7422180e-05
 -1.1449415e-05   2.2372496e-06
  1.0670951e-04   1.1530063e-06
 -1.2300879e-05   8.6078180e-06
 -2.0115869e-04   1.7483051e-05
 -3.9076604e-05   7.2831035e-06
 -1.7532537e-05   1.1095731e-05
 -1.6789477e-04   2.1914531e-05
  1.2641856e-04   7.3276719e-06
 -1.2000819e-04   1.2550449e-05
 -1.2361541e-04   4.5817637e-06
  2.2413607e-05   3.7279003e-06
 -4.9347022e-06   8.1479448e-06
  1.2470227e-04   2.4609246e-06
 -1.3124989e-05   3.5307685e-06
 -1.8722017e-04   4.9354676e-06
 -8.9701964e-05   1.5908516e-05
  4.6909227e-05   5.9942226e-06
  5.9990416e-05   1.2886814e-05
 -1.6482311e-04   2.0813318e-06
 -7.6764183e-05   6.1110331e-06
 -1.7986244e-05   1.0755561e-05
  1.9988034e-05   9.4730913e-06
 -4.3895299e-05   2.7864860e-06
  1.6942913e-05   3.9998858e-06
  6.5353452e-05   3.6592994e-06
 -6.9907932e-05   2.1090418e-05
  1.5228168e-06   1.4829149e-05
 -5.7484711e-05   4.7135072e-06
  4.1541836e-05   5.5240812e-06
  4.7985472e-05   1.3860154e-05
  2.4374868e-04   2.4439727e-05
 -9.7272139e-05   8.7260451e-06
  1.6984741e-04   1.9700048e-05
 -2.6390771e-05   8.4655176e-06
 -6.0523878e-05   1.1880868e-05
  9.0132409e-05   2.9539444e-05
  3.7529853e-06   8.5644942e-06
 -3.3372316e-07   6.0639777e-06
  1.7454509e-05   1.0607757e-05
  2.5611286e-04   3.9088791e-06
 -2.3930220e-04   7.0556976e-06
  9.2360574e-07   2.2611405e-06
  1.1227774e-05   1.1122939e-05
 -4.2869829e-07   9.5455798e-06
 -9.4717056e-05   2.1855543e-05
  1.6463104e-04   4.0393761e-06
  3.1152285e-05   1.1543975e-05
 -7.8472396e-05   1.3760211e-05
 -9.0191483e-05   2.4790943e-05
 -4.1578001e-05   1.7193931e-06
 -3.3780092e-05   5.7032448e-06
 -4.0738000e-06   2.1405462e-05
 -7.1673574e-05   1.1577437e-05
  2.2026592e-05   2.6898862e-05
 -9.7487013e-05   1.3590433e-05
 -8.2491504e-05   3.6098870e-06
 -9.0801404e-05   1.9186316e-05
  1.9397488e-05   1.4761662e-06
  1.4037469e-04   8.7892749e-06
  9.1003312e-05   1.3021155e-05
 -1.5116083e-04   8.2666156e-06
 -1.2091201e-05   1.6058291e-05
 -5.8266582e-05   1.0583059e-05
 -1.1835187e-04   1.3728108e-05
 -4.3899054e-06   7.4323166e-06
 -2.6763492e-04   5.7473062e-06
 -6.7680021e-06   6.5361542e-06
  1.4378520e-05   9.5044325e-06
 -3.5524503e-05   6.5703857e-06
  1.9940275e-05   1.4322218e-06
  4.1157997e-05   6.3746620e-06
  6.9270493e-05   4.4175258e-06
 -6.6621222e-05   1.6622166e-06
  8.4006737e-05   8.8354682e-06
 -8.7098648e-05   5.0095387e-06
 -1.8252598e-05   1.6032227e-05
  4.1852786e-06   1.7388080e-05
 -5.8938726e-06   2.2170377e-06
  4.1124204e-05   1.1620321e-05
  2.3583041e-06   1.2069507e-06
 -4.7472876e-04   1.9269885e-06
 -1.0904585e-04   2.7068647e-06
  6.6293644e-05   8.0037371e-06
  4.2184663e-05   6.1226874e-06
 -3.7862708e-05   1.2936527e-05
 -1.8866278e-05   3.1953678e-06
 -4.3741133e-05   4.4138292e-06
 -6.0445971e-05   1.4328481e-05
 -2.7332953e-05   2.1713070e-06
  9.2131391e-05   5.6706117e-06
 -5.8101323e-06   7.9146794e-06
  8.7375207e-05   3.6451299e-06
  7.0296010e-06   9.1038538e-07
  9.7381693e-05   1.8408848e-05
  1.4386460e-04   1.3893917e-05
  1.8407847e-04   9.5363112e-06
  1.0681001e-05   1.2912313e-05
 -7.5373609e-05   9.1058937e-06
 -1.6148997e-04   1.7431255e-06
 -2.7062426e-05   3.1545136e-05
  6.7013192e-05   1.4478416e-05
 -6.4683467e-05   3.1497721e-06
 -3.3780900e-05   1.8314831e-05
 -2.0341299e-04   1.2585156e-05
 -3.8668422e-05   1.2184478e-05
 -8.1849910e-05   1.5087704e-05
  3.7701804e-05   6.1119831e-06
 -8.1653297e-06   1.8633945e-06
 -2.9304189e-05   1.0975654e-05
  7.1216229e-05   6.1986138e-06
  4.6745897e-04   1.4228795e-05
  2.7384683e-06   1.5178290e-05
 -9.0477027e-07   1.8070955e-06
  1.6347461e-05   6.1626110e-06
  6.6725188e-05   3.7625944e-06
  1.5550700e-04   2.4229033e-08
  9.0502501e-05   1.6583546e-06
  2.0402425e-05   1.1020496e-06
 -2.0895229e-04   1.6746635e-06
 -6.8557980e-05   6.1792794e-06
 -1.0202730e-04   7.1366017e-06
 -5.5018183e-05   7.1526424e-06
 -1.6741069e-05   9.2913670e-06
 -1.2795448e-04   9.9641547e-06
 -1.0245023e-05   2.9088728e-06
 -1.8219207e-04   7.0994002e-07
 -1.9363313e-05   1.0212462e-05
  7.0876722e-06   8.8405568e-06
  1.8870131e-05   2.9310281e-06
  2.6410300e-05   6.5344216e-06
  3.1238073e-06   2.8590084e-05
 -1.5406002e-04   2.2596289e-06
 -1.7307737e-04   6.3211237e-06
 -5.1735351e-06   7.0411443e-06
  1.3235795e-04   2.3238126e-06
 -8.5134350e-05   8.1999669e-06
 -2.2344226e-05   9.6533240e-06
  3.4680503e-05   7.7398990e-06
  1.1293755e-04   6.0540201e-06
 -5.5745124e-05   1.0338691e-06
  1.0630379e-04   9.6955409e-06
  1.3333150e-04   1.0369052e-05
  1.6120430e-05   5.4059783e-06
 -5.2257215e-05   1.0727218e-05
  8.3610266e-06   3.8698686e-06
  6.0289116e-05   3.1925981e-06
  6.2020197e-05   3.2475416e-06
  6.5263011e-05   5.7279331e-06
  1.9609921e-05   7.1414803e-07
 -5.9406193e-05   4.7459557e-06
  2.5550027e-05   9.1099373e-06
  3.2572101e-05   1.6508015e-05
 -2.8818306e-05   1.2801233e-05
  7.9307778e-05   4.4451394e-06
  7.0915266e-05   9.1799836e-07
  4.4748682e-04   1.4734912e-05
  3.1716415e-01   4.3974364e-05
 -1.7962362e-05   7.4503432e-06
  5.9521259e-05   1.0854222e-05
  1.4336457e-04   1.3497510e-05
 -2.4763212e-06   8.0883328e-06
 -6.6131746e-05   1.2891055e-05
  7.5056247e-05   6.0528455e-06
  3.9006263e-05   7.2682419e-06
 -1.4821409e-05   1.6640300e-06
  3.7869057e-05   7.0064207e-06
  5.3828597e-05   7.7786690e-06
 -3.9523355e-05   1.7248351e-05
  8.5970285e-05   1.9869067e-07
  1.4755805e-04   5.4072343e-06
 -2.5670233e-05   1.8910885e-05
  2.9729952e-05   1.1105526e-05
 -1.1766992e-04   3.0527349e-06
 -3.3882650e-05   9.5421829e-06
 -1.3787560e-05   2.2050863e-05
  7.9927202e-05   5.3980616e-06
 -7.3504867e-05   6.8891782e-06
  3.2642423e-05   1.4217716e-05
 -2.5002824e-05   4.1518706e-06
 -3.1775020e-05   9.0248241e-06
 -9.0388030e-06   3.5561550e-06
 -7.2611532e-05   5.0339345e-06
 -1.8636056e-05   2.6438447e-06
  2.7541473e-05   4.3594723e-06
 -2.7516666e-05   1.1058541e-05
 -1.7645827e-05   4.7571220e-06
  1.1582657e-04   8.2766266e-05
  5.2868905e-05   1.5335270e-05
  3.7640930e-06   6.1419378e-06
  4.3145410e-06   1.1538670e-05
  5.4200729e-05   4.4198523e-06
  6.5773609e-05   3.3174210e-06
 -3.5415982e-05   9.3277851e-07
  7.3987969e-05   1.0825551e-05
 -2.2411713e-04   1.8570719e-06
  1.4264482e-06   4.2594975e-06
 -3.3010063e-05   1.3036468e-07
  5.1872303e-06   6.9328967e-06
 -8.1812294e-05   4.3316895e-06
 -2.1999457e-04   6.2973309e-06
 -1.3648247e-03   4.4877044e-05
  6.6049832e-01   2.5783297e-06
 -1.9172323e-05   2.2327260e-05
 -1.6010427e+00   2.3596653e-05
 -1.8053902e+00   3.8205602e-05
 -1.7464872e-05   2.0719110e-05
  5.9165459e-02   1.9876375e-06
 -4.4682754e-05   3.5446767e-06
 -3.1958386e-01   1.8595381e-05
 -8.9959256e-05   3.4756383e-06
  2.5074285e-01   2.3725763e-05
 -1.9017246e-01   6.6781184e-05
  1.0917686e-01   4.2634154e-05
 -2.1242189e-01   3.4497582e-05
  1.2379566e-04   1.0715592e-06
 -4.2356321e-01   4.4069120e-06
 -2.4002034e-03   9.1340535e-06
  8.1950806e-02   8.2875718e-05
 -1.8242128e-04   9.9850267e-06
  9.0441812e-05   7.8758612e-06
  1.7850542e-01   3.1897474e-05
 -6.4055994e-04   6.2175286e-06
 -6.4725794e-02   3.1574931e-05
 -1.0606743e-02   1.9335102e-05
 -8.9344112e-03   6.3783431e-05
 -9.1394220e-05   6.4887918e-06
  2.0447944e-01   7.2193138e-06
  4.7887920e-06   7.8278154e-06
  1.1119033e-01   1.2814577e-05
  1.3664485e-05   6.6597545e-06
 -6.0702229e-01   4.3958575e-05
  4.1077060e-01   8.6162396e-07
 -8.8300288e-01   1.4784706e-05
 -1.3061118e+00   8.2502748e-07
  2.9422762e+00   1.0392249e-05
 -2.1676719e+00   1.1038162e-05
 -1.7438020e-01   1.5572112e-05
  1.4141460e-01   4.2124528e-05
  1.6525355e-01   2.0355068e-05
 -5.5090361e-05   2.4375375e-05
  2.8446841e-01   2.8583529e-05
  3.5701256e-04   8.3086579e-06
  8.1230140e-01   3.1788513e-06
 -4.7241205e-01   1.2829531e-05
 -4.3413443e-03   1.7829123e-05
  5.1650912e-01   4.0598920e-06
 -2.5989654e+00   1.1114457e-06
 -6.3804913e-01   1.0759376e-05
  5.0339407e-01   4.4051089e-06
  6.9335651e-01   8.0839736e-06
 -1.0810931e-01   3.5553297e-05
  3.0685464e-01   5.4888783e-06
  3.3633673e-01   4.2255069e-05
  1.4902529e-01   2.2951328e-06
 -8.5205236e-04   7.5105881e-06
 -3.8471237e-01   7.3380557e-05
  2.5891688e-01   6.0094641e-05
 -1.3131039e-01   5.3002968e-05
  5.8500046e-01   2.3172523e-05
  2.6889745e-04   5.6411209e-05
 -8.8587075e-01   1.9482153e-05
 -1.3851227e+00   9.8634628e-06
  1.7126781e+00   7.5488224e-06
  1.7490015e+00   5.4434245e-06
  7.8112692e-01   3.3305246e-06
  6.9555664e-01   4.8030444e-05
  2.7449203e-01   2.6031389e-06
 -8.5758644e-01   1.2412305e-05
 -1.3472483e+00   1.0249794e-05
  6.5446633e-01   3.5980247e-05
  1.0718830e+00   1.0720307e-05
 -8.0836982e-02   1.8213985e-05
  7.4251734e-02   2.6577605e-05
 -5.4522607e-02   8.2260885e-06
 -9.3979555e-01   2.2872449e-05
  6.8529671e-01   2.0384468e-06
 -3.2534547e-02   9.2168887e-07
  3.4151909e-01   4.4136006e-05
 -8.3662458e-02   1.0091482e-05
 -2.8676676e-02   1.9002051e-05
  3.3350021e-01   2.4552504e-05
  2.7674672e-01   7.3915526e-06
 -4.5176467e-01   1.6887236e-05
  3.0444691e-01   3.1959264e-06
  2.6130123e-02   5.1964285e-05
  2.4961603e-03   4.5140296e-06
  3.9966115e-01   1.1086576e-04
  2.7768856e-01   1.7863899e-06
  6.1876560e-03   3.3851516e-05
  4.2308390e-02   2.2351576e-05
  3.3418430e-05   1.2865431e-06
 -1.9111131e-04   9.1292450e-06
 -9.0908616e-05   1.1763164e-05
  2.8092463e-05   1.0853491e-05
  6.0444512e-05   3.4411910e-06
  1.2563224e-04   7.9396741e-06
  8.6478438e-05   3.2721127e-05
 -9.4960606e-06   5.3112185e-06
  2.2516624e-05   2.8008840e-06
  5.4941465e-05   3.4115455e-05
 -1.5817021e-05   7.3959081e-06
  3.9523649e-05   3.9104129e-06
  6.5321142e-06   9.8869732e-06
  5.3182972e-05   1.7728931e-05
 -2.8752391e-05   1.5941074e-05
  9.1513339e-06   3.5755356e-06
 -4.1913419e-05   4.9073874e-06
 -6.3367814e-05   6.5093855e-06
 -1.2143750e-04   1.6641143e-05
 -2.2581738e-05   6.8064937e-06
  9.9785124e-05   6.6555572e-06
  4.4717533e-05   1.2594494e-05
  8.0266873e-05   1.8488773e-06
  5.3516036e-05   1.2602127e-05
 -3.4608031e-05   2.7516036e-05
  3.4114018e-05   3.0662993e-06
 -5.3961096e-05   5.2480950e-06
 -2.2639098e-04   7.3246915e-06
 -1.0509673e-04   1.2951890e-06
  1.1073460e-04   2.6227392e-06
  7.2670868e-05   1.6444844e-06
 -3.9228649e-05   1.9476665e-05
 -2.4228333e-04   1.6853041e-05
 -6.7504137e-05   2.0567335e-05
  1.7038559e-05   9.2616337e-06
 -1.1203529e-04   8.1241242e-06
  5.7626414e-05   2.3015370e-07
 -2.0602196e-05   5.4654724e-06
 -9.9933313e-06   9.8599576e-06
  2.8072162e-05   3.0731030e-06
 -3.7065145e-06   1.1550289e-05
  8.6233573e-05   7.2903244e-06
 -7.8151621e-05   1.6706950e-05
  4.7157064e-05   6.5374438e-06
  1.1390463e-04   3.1845957e-05
  4.3745466e-05   1.9955958e-06
  8.8588575e-05   1.3259209e-05
  1.9834399e-05   6.4948067e-06
 -9.1927730e-05   6.9892835e-06
 -4.9521135e-05   1.4994285e-05
  8.6781605e-05   1.1704549e-05
 -3.5050598e-05   1.0224325e-05
 -3.2438096e-05   2.0995790e-06
 -9.2794880e-06   4.2949387e-06
  8.0869395e-06   6.0964071e-06
  5.9052320e-05   1.0165293e-05
 -7.8947014e-05   7.7130917e-06
  6.0363100e-06   4.5969455e-06
 -3.3541924e-05   1.5245389e-05
 -1.7088701e-04   8.0746267e-06
  6.2507704e-02   8.4163956e-05
 -1.0647287e+00   5.5607438e-06
 -2.4119157e-01   2.2289323e-06
  1.8975267e+00   1.8242208e-06
 -6.5207236e-02   9.1545951e-07
  9.1324389e-01   1.5833499e-05
 -2.1470344e+00   1.0212031e-05
  7.5501198e-01   5.2924373e-05
  7.7195781e-01   2.0753796e-05
  1.2130648e-05   1.1035495e-06
  5.4819101e-01   1.0414383e-06
 -1.6098690e-01   1.3154620e-05
  2.0395441e-01   1.5465055e-05
  1.0257852e+00   1.2459640e-05
  7.5304242e-06   6.7408718e-07
  9.3445337e-01   3.1516578e-05
 -2.0216735e-01   1.1408816e-05
  3.5514221e-02   1.2865282e-06
  2.4809759e-05   4.2066731e-06
 -7.8701561e-07   1.1278513e-05
  1.4287914e-01   1.7479073e-05
  1.6169349e+00   3.1468913e-05
  2.3337051e-03   6.8101681e-06
 -2.1644203e-02   8.5359206e-06
 -2.1220081e-05   7.6588385e-06
 -3.0009821e-01   4.0278555e-05
 -6.4334672e-05   4.6891096e-06
 -8.9084971e-01   1.7185732e-05
 -1.8771993e-01   4.6494595e-05
  1.0955184e-03   5.0523631e-06
 -3.5034231e-05   9.2243517e-06
  6.7340370e-05   2.3407256e-05
 -6.4193446e-05   2.9727595e-05
  2.0629988e-05   3.9142774e-06
  5.6724726e-05   4.3110690e-06
 -1.8385681e-05   7.0189280e-06
  5.4402892e-05   6.2309255e-06
 -2.4091149e-05   3.6781139e-06
 -7.0598930e-05   1.0044475e-06
  3.1278152e-05   1.7693757e-06
  1.0148521e-05   1.1231583e-05
  4.5007175e-05   1.6533226e-05
 -1.5358171e-04   9.5264483e-07
  3.9019873e-05   4.0831992e-06
 -1.0616565e-05   6.1964325e-05
  1.0574052e-04   5.2254977e-06
  4.2010714e-05   3.0641766e-06
  5.1222710e-06   4.7281801e-06
  3.0175810e-05   2.7269596e-06
 -8.7646942e-05   3.0790884e-06
 -3.2335662e-05   4.4019525e-06
  1.1667304e-04   1.0826299e-05
 -1.7275210e-05   1.0965136e-05
  1.0167017e-04   1.3851454e-06
  1.0907936e-04   3.4790464e-06
 -2.1585232e-05   9.7618895e-06
  4.0741008e-05   2.4458857e-05
 -8.1096468e-06   1.1192109e-05
 -5.9166996e-05   1.1171521e-05
  7.4704485e-07   7.0377387e-06
  3.4777648e-05   5.3352692e-06
 -5.1656185e-05   8.5069569e-06
  3.4350618e-05   4.9097848e-06
 -7.4939802e-05   3.6705360e-06
  1.4101951e-05   1.2676943e-05
  2.7030233e-05   9.6120448e-06
  2.1716978e-05   6.0885600e-06
  4.6427740e-05   9.4240977e-06
  6.9891910e-05   2.3653786e-06
 -7.4224445e-05   1.2829930e-05
 -2.4554340e-04   1.8087234e-05
 -1.0563012e-05   1.3630125e-05
  1.6338359e-05   2.1736811e-05
 -2.3147663e-06   5.0946901e-06
  2.7143682e-04   1.6663829e-05
  1.6176245e-04   4.2152437e-06
 -1.6185557e-05   2.1933422e-05
 -9.3269136e-06   4.5930861e-07
 -1.4424029e-04   2.3092602e-05
  1.7048221e-04   4.7143508e-06
 -3.3346150e-05   5.6001331e-06
 -1.9687532e-04   1.5948210e-06
  4.4715882e-05   4.0340245e-07
 -1.8883329e-05   1.0328007e-05
  4.9590737e-05   2.4665678e-05
  3.7821803e-05   1.7907882e-05
  4.7404283e-05   5.9182271e-06
 -2.2883992e-06   2.0438070e-05
  3.2452925e-05   1.1063490e-05
  1.3052482e-04   1.3493420e-05
  2.2929122e-05   8.4340800e-06
 -4.3050417e-01   3.2365160e-06
  1.7091188e-01   2.1377124e-05
 -1.4975569e-01   1.0137016e-05
 -1.4599066e+00   1.4287893e-05
  1.9946141e+00   5.1922576e-05
 -4.4977483e-01   1.2189775e-05
 -5.9698802e-01   6.7179688e-05
  1.2918188e-01   5.6340241e-06
  9.4418496e-02   1.3835604e-05
  4.9215305e-04   3.5923122e-06
  1.6534276e-01   2.6128944e-05
 -2.3872399e-01   3.6948106e-05
 -1.3075809e-01   5.3651311e-06
 -5.9175545e-01   1.1176178e-04
 -5.1963758e-02   7.8756448e-06
  1.5566012e+00   2.9818983e-07
 -1.0251294e-01   5.6226486e-06
 -3.1279933e-01   2.3156255e-05
  6.4960945e-01   1.2595395e-05
 -4.5671180e-01   4.3697295e-05
 -1.2463226e-02   4.2437154e-05
 -1.1134856e-04   5.8541850e-06
  1.3114893e-01   2.3927660e-05
 -4.8765030e-02   4.4150693e-05
  7.3024130e-05   1.1596057e-05
  2.1588916e-03   2.5851101e-05
  2.9663256e-01   3.4070326e-05
  6.4287370e-01   5.5823830e-06
  2.0682533e-01   2.0779048e-04
  1.1266496e-05   6.9765265e-06
  1.2206784e-04   7.7871928e-06
  6.7118010e-05   2.6011412e-06
  4.7196005e-05   1.0374202e-05
 -1.0862048e-05   4.1151065e-06
 -4.1847616e-06   9.6430977e-06
  1.9130954e-05   6.2948088e-06
 -4.5233191e-05   3.0637011e-06
 -3.0997253e-05   1.2707219e-05
 -3.3516026e-05   4.1232220e-06
  8.0280537e-05   1.0185505e-05
  2.1592008e-05   1.3520488e-05
 -8.6848428e-05   1.4137201e-05
  1.5201340e-05   1.7202103e-06
 -1.6570893e-05   4.6105133e-06
 -9.9949812e-06   7.3786105e-06
 -2.6091102e-05   5.2805462e-06
 -2.8744619e-04   1.2565211e-05
 -7.6699114e-05   1.3990050e-05
 -2.1995859e-04   1.6671798e-05
 -4.8337904e-05   6.4529841e-06
 -2.1068327e-04   1.9136907e-05
 -7.9661055e-05   1.6067686e-05
 -1.2780279e-04   4.5541319e-06
 -1.7348573e-05   2.0477033e-05
  9.0635594e-06   3.5399346e-06
 -1.6545491e-05   1.6823450e-06
 -5.5938074e-07   1.4406685e-05
  9.6480253e-05   5.0047834e-06
 -4.5175650e-05   1.0261384e-05
 -2.3310912e-04   3.7465925e-06
 -2.6064256e-01   9.6412350e-06
 -3.8465929e-01   1.1206037e-05
  3.1396517e-01   2.9044044e-05
 -5.7573356e-02   1.3774090e-05
  2.8804630e-01   9.0451258e-06
  8.8132650e-02   2.9507435e-05
 -7.4722007e-02   8.1527778e-06
  7.3643500e-01   1.9009402e-05
  3.9254981e-01   9.7701166e-05
  5.8401132e-01   6.8975332e-06
 -2.0280588e-05   1.2690939e-06
 -1.7095927e-02   6.3229015e-07
  1.6246559e-01   3.6884287e-06
 -1.0418493e-04   6.2691947e-06
 -2.8665495e-01   3.3988936e-06
 -5.1995003e-01   2.1536564e-06
  1.1725473e-01   2.2999451e-05
  1.0900891e-01   1.8709910e-05
  6.0685282e-04   1.6310323e-05
  1.6045950e-01   8.2208671e-06
  7.9757881e-01   2.6241429e-05
 -2.8451785e-01   2.9231112e-05
 -3.6042620e-05   1.1582240e-06
  3.0546999e-01   4.0597406e-05
 -1.9440307e-01   1.2806793e-04
 -2.1846377e-05   2.6032885e-05
  5.4010689e-02   3.9694278e-05
  1.5578929e-01   6.1884507e-06
  1.5443451e-04   6.6401981e-06
 -1.4539222e-05   7.1005052e-06
 -3.6482328e-05   2.0318153e-05
  4.0035366e-06   1.2588403e-05
 -2.3093219e-04   1.2596658e-05
 -5.9440266e-05   1.2723730e-05
  3.9061713e-05   5.9666381e-06
 -1.0811828e-04   4.8421879e-07
 -1.6208263e-05   4.6268410e-06
  4.3610682e-05   2.2002239e-06
  1.1885429e-04   1.5152691e-05
  2.0250685e-04   1.1321068e-05
 -9.0016372e-05   4.1143462e-06
 -3.1835045e-06   2.7220995e-06
  1.0427492e-04   6.2860645e-06
  2.3404781e-04   5.6196955e-06
  7.6129960e-05   5.2673395e-06
 -8.1973194e-06   4.6770847e-06
 -3.2436750e-05   2.7196750e-06
 -1.8359342e-04   7.3070887e-06
  1.4132445e-05   4.9019292e-07
  6.9493544e-05   2.1581305e-05
 -3.5775513e-06   1.6470580e-05
  5.5632492e-05   1.6559530e-05
  2.2762068e-05   9.5420528e-06
  1.1348857e-05   1.9428051e-05
  6.9847379e-06   1.5602569e-05
 -7.2961574e-04   3.4271327e-06
  5.4647302e-05   1.0245215e-05
 -4.4123492e-05   1.2747464e-06
  1.7002929e-05   2.4515666e-06
 -3.8598564e-06   1.4042179e-05
  1.1168758e-01   1.0474380e-05
 -3.8565762e-02   2.8801303e-05
  1.4582347e+00   5.4353444e-05
 -1.8429878e-01   1.3796446e-06
  3.1722313e-01   1.9359593e-04
  7.4035496e-01   5.3402027e-06
  2.0224962e-04   1.6632603e-05
  8.3382100e-01   3.2462285e-06
  2.2425788e-04   2.7626227e-05
  8.4045237e-01   5.8587397e-05
  1.3963553e-02   1.1932863e-05
 -5.9125715e-01   2.3525570e-06
  6.4060450e-01   1.9181902e-05
 -7.6213300e-06   3.4894361e-05
 -1.4665545e+00   1.0437026e-05
  2.3541210e+00   3.0476771e-05
  4.5047271e-01   6.1257255e-05
 -4.1477251e-01   3.4827059e-05
  3.9836213e-01   1.4173608e-05
 -4.9242176e-02   3.6537458e-05
  1.1361006e+00   1.0383852e-05
 -7.1654290e-01   2.2546670e-05
  9.0246443e-03   1.4483827e-04
  4.4967529e-01   3.6520221e-05
  1.9975474e-05   7.1546339e-07
  3.7717095e-01   1.7645988e-06
 -2.6215799e-02   4.6309535e-05
  4.4850138e-01   4.1159788e-07
  2.3250333e-05   1.0669029e-05
 -1.1191692e-05   2.5921534e-06
  2.0113152e-05   1.7772552e-05
 -4.0622384e-05   1.1001503e-05
  3.9151760e-06   5.0557251e-06
 -2.0340097e-04   4.9200085e-06
 -3.1975145e-05   4.8977217e-06
  7.2709408e-05   2.8625745e-06
  3.5409906e-04   1.7642444e-05
 -1.3983816e-04   3.9597312e-06
 -5.1946343e-05   9.8071143e-07
  3.4873687e-05   6.7586143e-06
 -6.8268884e-05   1.0377235e-05
  5.4422209e-05   9.6531658e-06
 -1.8511570e-05   2.2621587e-06
 -2.3961633e-05   8.6435675e-06
  3.0369418e-05   9.2553446e-06
 -1.2186631e-06   1.3605338e-05
 -3.3339334e-06   1.9971341e-05
  2.9802929e-06   2.2627648e-06
 -8.9889683e-05   4.4322860e-06
 -2.8419681e-05   2.0015061e-05
  6.1062834e-05   2.3456273e-06
  1.5751342e-05   2.8515387e-05
 -2.2494931e-04   5.8658111e-07
  9.0675085e-06   1.4516138e-05
 -1.8885173e-04   1.2009769e-05
  9.1197774e-07   1.6822758e-05
 -4.8254755e-05   8.6347654e-06
  2.8186601e-05   4.7059884e-06
  8.4962332e-05   7.9734382e-06
  3.4937510e-01   7.0656120e-07
  5.4833978e-01   2.5908287e-06
  6.2882936e-01   2.7396572e-06
 -3.7201133e-01   2.7821225e-05
  1.0069793e-01   8.7492532e-07
  5.1336211e-01   8.3105377e-05
 -2.6094573e-02   8.7497465e-06
  1.5297452e-01   1.3283313e-05
  6.4994293e-01   3.5708090e-05
  8.8485312e-01   6.8533060e-05
 -1.8548325e-01   2.9287126e-05
  1.0487028e+00   5.8001788e-05
  1.1107593e-01   1.4236126e-05
  9.0064383e-01   7.5949733e-06
 -7.6759227e-02   5.6062116e-05
 -1.1842938e-01   2.1604733e-06
  1.2812310e+00   5.3352123e-06
 -4.5185393e-01   9.2359980e-05
  2.0707078e+00   8.0782527e-05
  1.3251482e+00   5.4321922e-06
 -4.1323757e-01   4.2880380e-05
  8.1719285e-01   9.2065548e-06
  2.7257615e-01   5.7779911e-05
  5.4351085e-01   6.7548033e-05
 -1.2941530e-01   5.9403370e-05
 -1.2969527e-05   1.2428304e-05
 -2.1011673e-04   1.7485694e-05
  3.8980579e-01   3.8541228e-05
 -4.2270875e-01   1.6437387e-05
  4.1052899e-05   3.7733873e-06
 -1.2063685e-04   1.5785372e-05
 -2.6011749e-06   1.8378521e-05
  9.7048658e-01   6.4196943e-06
 -1.2407381e-02   1.9480910e-06
  2.0260355e-01   1.3819201e-06
  1.5166296e-01   7.7194636e-07
  8.1260616e-05   1.0808600e-05
 -5.6503326e-01   2.3775599e-06
 -6.3818996e-05   8.0116861e-06
 -4.2661119e-05   1.4005310e-05
  3.1665695e-05   1.8035180e-06
 -3.0161589e-05   4.8323756e-07
  2.1396574e-05   1.1855506e-06
  4.5788602e-06   2.1542335e-06
  4.5335812e-05   9.5361784e-06
 -4.2079875e-01   1.9906623e-05
  7.9074696e-02   2.7422172e-06
  2.5874349e-01   4.9610603e-06
  2.2201779e-05   6.4987207e-06
  6.7190340e-05   1.3428174e-05
  3.2933849e-01   8.9764299e-06
 -1.4401608e-04   5.0376925e-06
 -9.0236397e-05   1.0247171e-05
 -4.4218630e-01   9.2211747e-07
  1.4218196e-04   8.6850432e-06
 -4.4974837e-01   5.3442145e-06
 -6.8742949e-05   1.2459783e-05
  7.7196187e-01   1.7790991e-05
 -4.5225890e-05   1.9574845e-05
  2.2902262e+00   4.6304758e-06
 -3.4609891e-04   3.0244946e-06
 -8.3448940e-06   7.9220308e-06
  1.0192866e+00   7.5984249e-06
 -1.0910929e+00   1.5320975e-05
 -1.3109993e+00   1.0296494e-05
  1.2140058e+00   8.4000720e-07
 -8.3805153e-06   6.0251996e-06