***************************************************************
*                 Welcome to use GPUMD                        *
*    (Graphics Processing Units Molecular Dynamics)           *
*                    Version 3.9.1                            *
*              This is the nep executable                     *
***************************************************************


---------------------------------------------------------------
GPU information:
---------------------------------------------------------------

number of GPUs = 1
Device id:                   0
    Device name:             NVIDIA GeForce RTX 4090
    Compute capability:      8.9
    Amount of global memory: 23.6497 GB
    Number of SMs:           128

---------------------------------------------------------------
Started running nep.
---------------------------------------------------------------


---------------------------------------------------------------
Started reading nep.in.
---------------------------------------------------------------

Input or default parameters:
    (default) model_type = potential.
    (default) calculation mode = train.
    (input)   use NEP version 4.
    (input)   number of atom types = 3.
        (default) type 0 (Mo with Z = 42) has force weight of 1.
        (default) type 1 (Si with Z = 14) has force weight of 1.
        (default) type 2 (N with Z = 7) has force weight of 1.
    (default) will not add the ZBL potential.
    (input)   radial cutoff = 6 A.
    (input)   angular cutoff = 4 A.
    (input)   n_max_radial = 4.
    (input)   n_max_angular = 4.
    (input)   basis_size_radial = 12.
    (input)   basis_size_angular = 12.
    (input)   l_max_3body = 4.
    (input)   l_max_4body = 2.
    (input)   l_max_5body = 0.
    (input)   number of neurons = 30.
    (default) lambda_1 = -1.
    (default) lambda_2 = -1.
    (input)   lambda_e = 1.
    (input)   lambda_f = 1.
    (input)   lambda_v = 0.1.
    (default) lambda_shear = 1.
    (default) force_delta = 0.
    (input)   batch size = 2000.
    (input)   population size = 50.
    (input)   maximum number of generations = 300000.
Some calculated parameters:
    number of radial descriptor components = 5.
    number of angular descriptor components = 25.
    total number of descriptor components = 30.
    NN architecture = 30-30-1.
    number of NN parameters to be optimized = 2881.
    number of descriptor parameters to be optimized = 1170.
    total number of parameters to be optimized = 4051.

---------------------------------------------------------------
Finished reading nep.in.
---------------------------------------------------------------


---------------------------------------------------------------
Started reading train.xyz.
---------------------------------------------------------------

Number of configurations = 308.
Number of devices = 1
Number of batches = 1
Hello, I changed the batch_size from 2000 to 308.

Batch 0:
Number of configurations = 308.

---------------------------------------------------------------
Constructing train_set in device  0.
Total number of atoms = 3143.
Number of atoms in the largest configuration = 63.
Number of configurations having virial = 308.
Radial descriptor with a cutoff of 6 A:
    Minimum number of neighbors for one atom = 46.
    Maximum number of neighbors for one atom = 101.
Angular descriptor with a cutoff of 4 A:
    Minimum number of neighbors for one atom = 15.
    Maximum number of neighbors for one atom = 33.
---------------------------------------------------------------


---------------------------------------------------------------
Started reading test.xyz.
---------------------------------------------------------------

Number of configurations = 827.

---------------------------------------------------------------
Constructing test_set in device  0.
Total number of atoms = 30632.
Number of atoms in the largest configuration = 84.
Number of configurations having virial = 827.
Radial descriptor with a cutoff of 6 A:
    Minimum number of neighbors for one atom = 47.
    Maximum number of neighbors for one atom = 102.
Angular descriptor with a cutoff of 4 A:
    Minimum number of neighbors for one atom = 15.
    Maximum number of neighbors for one atom = 32.
---------------------------------------------------------------


---------------------------------------------------------------
Time used for initialization = 0.061152 s.
---------------------------------------------------------------


---------------------------------------------------------------
Started training.
---------------------------------------------------------------

Step    Total-Loss L1Reg-Loss L2Reg-Loss RMSE-E-Train RMSE-F-Train RMSE-V-Train RMSE-E-Test  RMSE-F-Test  RMSE-V-Test  
100     8.35398    1.23434    1.57621    0.32115      5.09444      1.27842      0.28762      1.22652      0.50001      
200     2.36842    0.41094    0.53629    0.06376      1.30244      0.54985      0.04309      0.65810      0.41872      
300     2.00599    0.38136    0.49514    0.05006      1.04794      0.31493      0.03901      0.52494      0.18258      
400     1.78240    0.36052    0.46721    0.04167      0.87972      0.33277      0.01604      0.59706      0.15223      
500     1.64116    0.35092    0.45426    0.03677      0.76949      0.29723      0.01763      0.51382      0.20861      
600     1.58208    0.35044    0.45385    0.03323      0.71373      0.30843      0.01784      0.50315      0.20359      
700     1.51104    0.34679    0.44584    0.04026      0.65187      0.26281      0.04348      0.42557      0.16960      
800     1.40116    0.33131    0.42396    0.02827      0.58548      0.32149      0.02595      0.44987      0.21160      
900     1.50450    0.36477    0.46608    0.03411      0.61415      0.25388      0.02749      0.40549      0.13357      
1000    1.52847    0.37701    0.48009    0.03371      0.60622      0.31431      0.03330      0.40458      0.21919      
1100    1.46522    0.36716    0.46850    0.03295      0.57351      0.23097      0.02192      0.40363      0.14818      
1200    1.50951    0.38474    0.49150    0.03798      0.56713      0.28149      0.02569      0.39376      0.18942      
1300    1.49002    0.38486    0.48916    0.02681      0.56496      0.24226      0.01219      0.41388      0.13100      
1400    1.49427    0.38886    0.49737    0.02736      0.54727      0.33404      0.01700      0.39734      0.29756      
1500    1.42711    0.37451    0.47922    0.02723      0.52228      0.23868      0.02223      0.37233      0.15770      
1600    1.42006    0.37629    0.48137    0.02759      0.50575      0.29054      0.02716      0.37244      0.31820      
1700    1.49150    0.40082    0.51053    0.02997      0.52669      0.23493      0.02522      0.36919      0.16303      
1800    1.46460    0.39698    0.50801    0.02457      0.51348      0.21562      0.01469      0.32108      0.10410      
1900    1.47149    0.40245    0.51228    0.02996      0.49845      0.28345      0.01875      0.34033      0.26381      
2000    1.42259    0.39289    0.49964    0.02438      0.48298      0.22700      0.01304      0.35765      0.14200      
2100    1.44407    0.40064    0.51120    0.02468      0.48369      0.23851      0.02187      0.33374      0.10316      
2200    1.44048    0.40249    0.51435    0.02639      0.47465      0.22606      0.01945      0.35690      0.19464      
2300    1.50917    0.42416    0.54221    0.03134      0.49024      0.21229      0.02447      0.35927      0.12124      
2400    1.52425    0.43185    0.55070    0.02899      0.48856      0.24142      0.02710      0.40654      0.19161      
2500    1.51982    0.43261    0.55350    0.03282      0.47706      0.23830      0.04610      0.32110      0.15284      
2600    1.52204    0.43544    0.55714    0.02912      0.47857      0.21767      0.02397      0.39363      0.16061      
2700    1.50892    0.43479    0.55674    0.02370      0.47180      0.21891      0.01970      0.32125      0.18136      
2800    1.51952    0.43996    0.56307    0.02428      0.47344      0.18769      0.01681      0.34437      0.10611      
2900    1.51864    0.44302    0.56572    0.02023      0.46611      0.23550      0.00857      0.33515      0.18300      
3000    1.53490    0.44929    0.57441    0.02329      0.47010      0.17804      0.01037      0.33178      0.10559      
3100    1.54525    0.45455    0.57903    0.02728      0.46301      0.21371      0.01609      0.32502      0.16787      
3200    1.50383    0.44221    0.56543    0.02359      0.45264      0.19958      0.01221      0.36242      0.14092      
3300    1.50862    0.44510    0.56856    0.02316      0.45112      0.20683      0.01211      0.33881      0.14832      
3400    1.50363    0.44414    0.56769    0.02788      0.43641      0.27507      0.02617      0.32400      0.23567      
3500    1.53374    0.45368    0.58232    0.02226      0.45399      0.21487      0.01254      0.35623      0.13367      
3600    1.49429    0.44294    0.57038    0.02216      0.43490      0.23920      0.01726      0.31909      0.12169      
3700    1.50292    0.44880    0.57468    0.02586      0.43211      0.21473      0.02510      0.30207      0.09971      
3800    1.44263    0.43169    0.55320    0.02073      0.41471      0.22297      0.01350      0.29659      0.10619      
3900    1.42016    0.42687    0.54785    0.01912      0.40889      0.17422      0.01235      0.29427      0.09270      
4000    1.53205    0.46102    0.59341    0.02455      0.42836      0.24710      0.02763      0.30816      0.14839      
4100    1.44543    0.43642    0.56233    0.02320      0.40163      0.21853      0.01854      0.31671      0.17120      
4200    1.46283    0.44331    0.57109    0.02196      0.40411      0.22359      0.01831      0.30692      0.22172      
4300    1.49273    0.45239    0.58557    0.02109      0.41284      0.20849      0.01699      0.31012      0.14960      
4400    1.41552    0.43068    0.55785    0.02002      0.38959      0.17384      0.01783      0.29219      0.10726      
4500    1.47590    0.45004    0.58352    0.01871      0.40477      0.18859      0.00957      0.30158      0.11493      
4600    1.45702    0.44602    0.57736    0.01882      0.39640      0.18406      0.01020      0.28938      0.10270      
4700    1.44798    0.44424    0.57598    0.01748      0.39127      0.19015      0.01309      0.31652      0.12719      
4800    1.45733    0.44982    0.57967    0.01814      0.38953      0.20168      0.00784      0.29860      0.14934      
4900    1.40332    0.43487    0.55911    0.02244      0.36957      0.17327      0.02078      0.26419      0.09009      
5000    1.43508    0.44499    0.57303    0.01893      0.37874      0.19384      0.01299      0.28008      0.14708      
5100    1.35245    0.42045    0.54061    0.01660      0.35660      0.18196      0.01455      0.26444      0.12540      
5200    1.39772    0.43453    0.55979    0.01797      0.37024      0.15195      0.01079      0.28871      0.09147      
5300    1.30317    0.40674    0.52306    0.01498      0.34349      0.14903      0.01327      0.25998      0.09757      
5400    1.37212    0.42842    0.55173    0.01909      0.35837      0.14524      0.01479      0.28341      0.08158      
5500    1.35011    0.42122    0.54368    0.02150      0.34661      0.17100      0.01948      0.27888      0.12566      
5600    1.36214    0.42642    0.54952    0.01888      0.35009      0.17214      0.01034      0.27189      0.10799      
5700    1.34571    0.42193    0.54527    0.01735      0.34271      0.18446      0.01360      0.28877      0.14994      
5800    1.35251    0.42479    0.54770    0.01829      0.34151      0.20227      0.01115      0.27558      0.16929      
5900    1.36782    0.42812    0.55328    0.02111      0.34819      0.17119      0.01834      0.28535      0.10371      
6000    1.38293    0.43401    0.55930    0.01903      0.35329      0.17303      0.01892      0.30402      0.15028      
6100    1.39901    0.43960    0.56483    0.02155      0.35203      0.21006      0.01419      0.29617      0.18621      
6200    1.32749    0.41713    0.53756    0.01675      0.33817      0.17878      0.01446      0.27379      0.13310      
6300    1.31929    0.41462    0.53554    0.01749      0.33494      0.16697      0.01248      0.27675      0.14376      
6400    1.30726    0.41165    0.53186    0.01666      0.32885      0.18241      0.01246      0.26251      0.10239      
6500    1.31650    0.41519    0.53516    0.02166      0.32674      0.17763      0.01837      0.26368      0.17497      
6600    1.30825    0.41194    0.53191    0.01903      0.32522      0.20140      0.01343      0.28511      0.11487      
6700    1.31587    0.41444    0.53534    0.02033      0.32960      0.16164      0.01858      0.26155      0.07242      
6800    1.32031    0.41585    0.53956    0.01646      0.33265      0.15784      0.01183      0.26446      0.10410      
6900    1.30566    0.41233    0.53478    0.01676      0.32335      0.18452      0.00928      0.26675      0.11485      
7000    1.27914    0.40517    0.52498    0.01639      0.31187      0.20720      0.01254      0.25751      0.10904      
7100    1.30362    0.41285    0.53584    0.02047      0.31656      0.17905      0.02058      0.25129      0.15784      
7200    1.33582    0.42457    0.54991    0.01789      0.32631      0.17136      0.01149      0.25505      0.10911      
7300    1.27885    0.40646    0.52685    0.01660      0.30981      0.19134      0.01451      0.24861      0.10974      
7400    1.25551    0.39947    0.51697    0.01733      0.30845      0.13291      0.01292      0.25768      0.08391      
7500    1.24847    0.39707    0.51428    0.01462      0.30636      0.16142      0.01025      0.25636      0.12146      
7600    1.28975    0.41072    0.53298    0.01596      0.31050      0.19595      0.00815      0.23669      0.10610      
7700    1.23533    0.39430    0.51035    0.01474      0.30035      0.15598      0.00974      0.24727      0.07964      
7800    1.25498    0.40088    0.51870    0.01491      0.30232      0.18178      0.01096      0.23568      0.10266      
7900    1.26263    0.40404    0.52206    0.01536      0.30579      0.15381      0.01048      0.24692      0.08483      
8000    1.26335    0.40495    0.52316    0.01807      0.30073      0.16430      0.01420      0.24088      0.11220      
8100    1.25596    0.40287    0.52082    0.01351      0.30335      0.15420      0.00862      0.24774      0.08102      
8200    1.26676    0.40714    0.52640    0.01361      0.30571      0.13902      0.00715      0.25999      0.07084      
8300    1.26344    0.40591    0.52529    0.01787      0.29847      0.15903      0.01413      0.24947      0.06779      
8400    1.25979    0.40618    0.52444    0.01887      0.29598      0.14319      0.01226      0.24167      0.07619      
8500    1.27007    0.40945    0.52910    0.01711      0.29985      0.14562      0.01617      0.25231      0.06852      
8600    1.22334    0.39377    0.50986    0.01431      0.29218      0.13222      0.00676      0.24193      0.08353      
8700    1.25523    0.40467    0.52352    0.01644      0.29532      0.15285      0.00812      0.24161      0.09468      
8800    1.22032    0.39299    0.51048    0.01543      0.28541      0.16017      0.01302      0.22459      0.07069      
8900    1.26644    0.40831    0.52982    0.01910      0.29197      0.17235      0.01566      0.23913      0.12198      
9000    1.24575    0.40197    0.52211    0.01788      0.28871      0.15084      0.01455      0.23375      0.11311      
9100    1.24486    0.40148    0.52184    0.01610      0.28670      0.18740      0.01531      0.23134      0.11534      
9200    1.25685    0.40532    0.52773    0.01488      0.29267      0.16249      0.01122      0.24392      0.11571      
9300    1.21085    0.39051    0.50872    0.01440      0.28286      0.14353      0.00748      0.23495      0.06571      
9400    1.24164    0.40158    0.52121    0.01518      0.28921      0.14457      0.01031      0.23851      0.10397      
9500    1.21668    0.39301    0.51096    0.01495      0.28376      0.14005      0.01260      0.23791      0.06397      
9600    1.21584    0.39341    0.51161    0.01290      0.28339      0.14535      0.00624      0.23611      0.09746      
9700    1.20480    0.39001    0.50637    0.01233      0.28089      0.15197      0.00727      0.22852      0.07729      
9800    1.23114    0.39873    0.51752    0.01412      0.28409      0.16685      0.01008      0.23725      0.06899      
9900    1.25426    0.40566    0.52712    0.01408      0.29178      0.15612      0.00780      0.24928      0.09728      
10000   1.18960    0.38487    0.49969    0.01543      0.27486      0.14758      0.01310      0.23657      0.08355      
10100   1.18120    0.38280    0.49736    0.01258      0.27348      0.14979      0.00910      0.22571      0.06151      
10200   1.20621    0.39058    0.50794    0.01336      0.28029      0.14037      0.01212      0.24812      0.05676      
10300   1.20813    0.39113    0.50884    0.01276      0.27885      0.16557      0.00957      0.23565      0.11934      
10400   1.17932    0.38306    0.49625    0.01186      0.27366      0.14488      0.00578      0.24302      0.07542      
10500   1.17216    0.38110    0.49265    0.01518      0.27012      0.13099      0.01320      0.23517      0.08480      
10600   1.16255    0.37751    0.48957    0.01265      0.26781      0.15018      0.00871      0.23063      0.11030      
10700   1.18689    0.38607    0.49973    0.01406      0.27227      0.14761      0.01004      0.23099      0.08913      
10800   1.17309    0.38205    0.49415    0.01390      0.26944      0.13548      0.00850      0.23647      0.08165      
10900   1.15533    0.37509    0.48652    0.01352      0.26753      0.12678      0.01248      0.22298      0.05735      
11000   1.15230    0.37462    0.48639    0.01242      0.26363      0.15239      0.00844      0.23385      0.10629      
11100   1.16752    0.37916    0.49290    0.01209      0.26657      0.16794      0.00664      0.23052      0.10746      
11200   1.10071    0.35766    0.46451    0.01113      0.25391      0.13493      0.00580      0.22970      0.06580      
11300   1.08243    0.35175    0.45574    0.01032      0.25197      0.12647      0.00679      0.23024      0.06315      
11400   1.12095    0.36468    0.47268    0.01369      0.25479      0.15117      0.01129      0.22765      0.07138      
11500   1.10575    0.36044    0.46548    0.01101      0.25592      0.12892      0.00616      0.23709      0.07814      
11600   1.10278    0.35927    0.46518    0.01123      0.25342      0.13672      0.00568      0.21748      0.06908      
11700   1.10903    0.36046    0.46767    0.01130      0.25686      0.12739      0.00610      0.22281      0.08799      
11800   1.09348    0.35575    0.46137    0.01192      0.25024      0.14203      0.00598      0.22165      0.08150      
11900   1.09141    0.35540    0.46085    0.01101      0.25121      0.12934      0.00763      0.22386      0.07715      
12000   1.10738    0.36063    0.46762    0.01314      0.25252      0.13465      0.01490      0.22541      0.09452      
12100   1.09577    0.35708    0.46200    0.01360      0.25086      0.12239      0.01352      0.22053      0.06703      
12200   1.07891    0.35158    0.45560    0.01228      0.24512      0.14333      0.00751      0.21564      0.12367      
12300   1.06562    0.34760    0.44936    0.01356      0.24241      0.12683      0.01181      0.21674      0.09390      
12400   1.06580    0.34738    0.44895    0.01214      0.24438      0.12963      0.01287      0.21076      0.10319      
12500   1.06969    0.34870    0.45109    0.01231      0.24323      0.14352      0.01054      0.20993      0.09118      
12600   1.03137    0.33643    0.43506    0.00994      0.23711      0.12827      0.00637      0.21188      0.08439      
12700   1.05478    0.34358    0.44448    0.01081      0.24415      0.11766      0.00952      0.20632      0.07117      
12800   1.05051    0.34199    0.44310    0.01326      0.24010      0.12046      0.01115      0.21376      0.06165      
12900   1.05122    0.34191    0.44305    0.01135      0.24309      0.11814      0.00914      0.21353      0.06206      
13000   1.02856    0.33401    0.43354    0.01331      0.23556      0.12131      0.01128      0.20546      0.05763      
13100   1.04020    0.33818    0.43811    0.01002      0.24070      0.13186      0.00484      0.21785      0.06864      
13200   1.01557    0.33038    0.42737    0.01162      0.23366      0.12544      0.01096      0.21096      0.07601      
13300   1.01394    0.33013    0.42571    0.01155      0.23400      0.12537      0.00881      0.21217      0.07170      
13400   1.01379    0.32952    0.42527    0.01063      0.23255      0.15821      0.00547      0.21043      0.10597      
13500   1.00976    0.32884    0.42396    0.01264      0.23082      0.13499      0.01288      0.22475      0.10184      
13600   0.99882    0.32564    0.41984    0.01196      0.22847      0.12913      0.00886      0.20517      0.06387      
13700   0.99932    0.32560    0.42016    0.01064      0.23033      0.12597      0.00596      0.20227      0.07324      
13800   0.99516    0.32405    0.41747    0.01036      0.22865      0.14626      0.00817      0.20323      0.08155      
13900   0.99064    0.32274    0.41537    0.01046      0.22980      0.12267      0.00805      0.20540      0.05916      
14000   0.97504    0.31758    0.40894    0.01103      0.22526      0.12227      0.00988      0.20638      0.06782      
14100   1.00384    0.32628    0.42035    0.01020      0.23408      0.12927      0.00632      0.20560      0.07987      
14200   0.99873    0.32523    0.41887    0.01093      0.23162      0.12076      0.00965      0.21727      0.07125      
14300   0.99740    0.32414    0.41876    0.01048      0.23160      0.12424      0.00810      0.20996      0.07453      
14400   0.98299    0.31916    0.41228    0.01307      0.22704      0.11441      0.01533      0.20674      0.07060      
14500   0.95671    0.31126    0.40209    0.01003      0.22114      0.12190      0.00711      0.20505      0.05554      
14600   0.97983    0.31875    0.41164    0.01040      0.22474      0.14291      0.00603      0.20595      0.08050      
14700   1.00943    0.32865    0.42281    0.01084      0.23441      0.12717      0.00611      0.21384      0.07694      
14800   0.97868    0.31900    0.41046    0.01021      0.22647      0.12532      0.00713      0.20524      0.09178      
14900   0.96495    0.31356    0.40540    0.01043      0.22407      0.11500      0.00983      0.20362      0.05978      
15000   0.96420    0.31304    0.40537    0.01197      0.22219      0.11620      0.00926      0.20087      0.07052      
15100   0.95573    0.31046    0.40156    0.01262      0.21869      0.12403      0.00970      0.19566      0.07897      
15200   0.96875    0.31426    0.40693    0.01070      0.22444      0.12421      0.00748      0.19946      0.07286      
15300   0.97343    0.31626    0.40828    0.01039      0.22625      0.12248      0.00553      0.21004      0.07284      
15400   0.97136    0.31554    0.40756    0.00954      0.22769      0.11028      0.00641      0.19875      0.06547      
15500   0.95881    0.31098    0.40184    0.01042      0.22239      0.13191      0.00883      0.19737      0.10050      
15600   0.94248    0.30604    0.39475    0.00913      0.22156      0.10996      0.00726      0.19257      0.05458      
15700   0.94532    0.30690    0.39531    0.01039      0.22057      0.12143      0.00526      0.19191      0.06532      
15800   0.94531    0.30621    0.39559    0.00891      0.22288      0.11708      0.00633      0.20428      0.05830      
15900   0.95142    0.30841    0.39760    0.01061      0.22373      0.11067      0.00980      0.20563      0.06802      
16000   0.93287    0.30256    0.38951    0.00922      0.22039      0.11194      0.00535      0.19558      0.05999      
16100   0.92320    0.29984    0.38554    0.00996      0.21596      0.11907      0.00912      0.18864      0.05839      
16200   0.91904    0.29808    0.38432    0.01028      0.21588      0.10491      0.00848      0.19329      0.04731      
16300   0.93346    0.30285    0.38974    0.01104      0.21941      0.10424      0.00950      0.19121      0.05247      
16400   0.91793    0.29775    0.38276    0.01132      0.21565      0.10464      0.00886      0.19145      0.06176      
16500   0.90800    0.29391    0.37887    0.00974      0.21363      0.11853      0.00772      0.18869      0.08709      
16600   0.88945    0.28715    0.37028    0.01054      0.21104      0.10445      0.00995      0.18583      0.05970      
16700   0.88525    0.28674    0.36860    0.00981      0.21033      0.09773      0.00799      0.18544      0.06409      
16800   0.89287    0.28975    0.37116    0.01109      0.21016      0.10709      0.00606      0.18825      0.05294      
16900   0.89613    0.29083    0.37276    0.00922      0.21255      0.10770      0.00535      0.19487      0.06045      
17000   0.89498    0.29051    0.37243    0.01143      0.21047      0.10132      0.01046      0.18877      0.06250      
17100   0.89163    0.29012    0.37034    0.01038      0.21028      0.10507      0.00734      0.19352      0.05554      
17200   0.88511    0.28634    0.36729    0.01200      0.20829      0.11185      0.00992      0.18078      0.05159      
17300   0.89583    0.29068    0.37215    0.01060      0.21202      0.10371      0.00716      0.18270      0.06098      
17400   0.88943    0.28831    0.36880    0.01079      0.20930      0.12239      0.00717      0.18456      0.09435      
17500   0.86346    0.27932    0.35857    0.00959      0.20644      0.09534      0.00730      0.19366      0.05130      
17600   0.86849    0.28051    0.36060    0.00969      0.20695      0.10733      0.00613      0.18743      0.04937      
17700   0.85945    0.27718    0.35683    0.01023      0.20488      0.10326      0.01012      0.17639      0.04752      
17800   0.86497    0.27869    0.35888    0.00953      0.20622      0.11642      0.00641      0.18490      0.07703      
17900   0.86842    0.27934    0.36056    0.00949      0.20828      0.10745      0.00795      0.18715      0.06433      
18000   0.84171    0.27047    0.34932    0.00979      0.20204      0.10084      0.00959      0.17350      0.04687      
18100   0.86069    0.27594    0.35697    0.00958      0.20714      0.11061      0.00537      0.18568      0.05589      
18200   0.85959    0.27571    0.35692    0.00864      0.20800      0.10329      0.00388      0.17452      0.05107      
18300   0.84935    0.27251    0.35256    0.00977      0.20456      0.09955      0.00943      0.17336      0.04922      
18400   0.84908    0.27239    0.35223    0.00983      0.20427      0.10379      0.00793      0.18036      0.05387      
18500   0.83840    0.26923    0.34720    0.00912      0.20275      0.10100      0.00621      0.18104      0.05517      
18600   0.80800    0.25935    0.33477    0.00830      0.19538      0.10198      0.00519      0.17319      0.05856      
18700   0.84169    0.26986    0.34829    0.01028      0.20305      0.10217      0.01032      0.18502      0.05618      
18800   0.82971    0.26662    0.34368    0.00967      0.19954      0.10191      0.00573      0.17946      0.05370      
18900   0.83175    0.26673    0.34416    0.00897      0.20180      0.10100      0.00738      0.17797      0.05736      
19000   0.84323    0.27022    0.34903    0.00958      0.20394      0.10463      0.00427      0.18323      0.05259      
19100   0.81561    0.26104    0.33710    0.00876      0.19764      0.11070      0.00478      0.18381      0.06879      
19200   0.82521    0.26427    0.34089    0.00802      0.20139      0.10639      0.00582      0.18384      0.06622      
19300   0.81619    0.26104    0.33778    0.00885      0.19860      0.09917      0.00854      0.18283      0.04795      
19400   0.82055    0.26207    0.33920    0.00880      0.20021      0.10266      0.00788      0.18601      0.04930      
19500   0.81254    0.25889    0.33503    0.00897      0.19711      0.12544      0.00603      0.18249      0.07806      
19600   0.80894    0.25822    0.33353    0.00809      0.19813      0.10963      0.00811      0.18341      0.05738      
19700   0.80461    0.25627    0.33160    0.00818      0.19767      0.10892      0.00569      0.18315      0.06307      
19800   0.80493    0.25661    0.33158    0.00851      0.19794      0.10299      0.00683      0.18074      0.06149      
19900   0.79624    0.25376    0.32788    0.00771      0.19621      0.10689      0.00620      0.18838      0.07724      
20000   0.80513    0.25625    0.33181    0.00815      0.19845      0.10470      0.00583      0.19404      0.06962      
20100   0.79513    0.25177    0.32654    0.00822      0.19773      0.10877      0.00768      0.18130      0.06468      
20200   0.78905    0.25082    0.32453    0.00838      0.19485      0.10472      0.00391      0.18124      0.05298      
20300   0.77964    0.24785    0.32047    0.00868      0.19211      0.10523      0.00688      0.17917      0.05390      
20400   0.78857    0.25021    0.32427    0.00804      0.19461      0.11441      0.00562      0.18012      0.06600      
20500   0.77445    0.24588    0.31804    0.00823      0.19259      0.09707      0.00409      0.18150      0.05806      
20600   0.77733    0.24698    0.31954    0.00848      0.19144      0.10906      0.00587      0.17573      0.07366      
20700   0.77717    0.24659    0.31965    0.00833      0.19267      0.09933      0.00382      0.17737      0.04695      
20800   0.76676    0.24334    0.31503    0.00763      0.19126      0.09510      0.00575      0.17335      0.04664      
20900   0.76264    0.24162    0.31341    0.00833      0.18816      0.11112      0.00579      0.17310      0.08640      
21000   0.75642    0.23906    0.31079    0.00804      0.18853      0.10007      0.00724      0.17077      0.06042      
21100   0.76394    0.24143    0.31409    0.00750      0.19168      0.09245      0.00721      0.17345      0.05178      
21200   0.76143    0.24108    0.31314    0.00695      0.19082      0.09432      0.00657      0.17196      0.05834      
21300   0.75984    0.24041    0.31207    0.00762      0.18989      0.09846      0.00613      0.17526      0.05919      
21400   0.76552    0.24224    0.31382    0.00897      0.18935      0.11136      0.00586      0.16900      0.07295      
21500   0.73855    0.23322    0.30279    0.00770      0.18525      0.09596      0.00451      0.17179      0.05403      
21600   0.74655    0.23572    0.30656    0.00716      0.18793      0.09172      0.00441      0.16906      0.04721      
21700   0.74941    0.23663    0.30745    0.00731      0.18838      0.09639      0.00450      0.17196      0.04285      
21800   0.73872    0.23316    0.30282    0.00746      0.18588      0.09401      0.00617      0.16839      0.05037      
21900   0.75091    0.23710    0.30797    0.00740      0.18840      0.10035      0.00479      0.17184      0.06443      
22000   0.74074    0.23362    0.30368    0.00827      0.18575      0.09432      0.00688      0.17401      0.07486      
22100   0.74376    0.23437    0.30446    0.00759      0.18839      0.08946      0.00624      0.17329      0.06100      
22200   0.72879    0.22926    0.29814    0.00804      0.18312      0.10233      0.00477      0.16288      0.05508      
22300   0.73637    0.23136    0.30116    0.00742      0.18677      0.09667      0.00640      0.17443      0.04825      
22400   0.73402    0.23022    0.30050    0.00772      0.18550      0.10084      0.00574      0.16611      0.06261      
22500   0.71819    0.22514    0.29361    0.00772      0.18224      0.09484      0.00716      0.16411      0.05566      
22600   0.70628    0.22028    0.28860    0.00719      0.18113      0.09073      0.00613      0.16459      0.05728      
22700   0.70981    0.22180    0.29015    0.00744      0.18062      0.09798      0.00699      0.15955      0.04559      
22800   0.70740    0.22049    0.28930    0.00704      0.18115      0.09416      0.00608      0.16454      0.04767      
22900   0.71301    0.22237    0.29124    0.00734      0.18270      0.09362      0.00520      0.16458      0.06108      
23000   0.71180    0.22211    0.29045    0.00734      0.18216      0.09746      0.00469      0.16491      0.05577      
23100   0.70328    0.21939    0.28706    0.00683      0.18070      0.09301      0.00406      0.16707      0.04507      
23200   0.70925    0.22106    0.28956    0.00774      0.18056      0.10335      0.00487      0.16213      0.06365      
23300   0.71422    0.22180    0.29116    0.00735      0.18512      0.08782      0.00867      0.16631      0.04534      
23400   0.69973    0.21763    0.28478    0.00719      0.18067      0.09461      0.00714      0.16532      0.05915      
23500   0.69982    0.21787    0.28457    0.00765      0.18052      0.09207      0.00524      0.16329      0.04036      
23600   0.69841    0.21717    0.28377    0.00846      0.17897      0.10052      0.00824      0.16354      0.05306      
23700   0.69453    0.21611    0.28196    0.00725      0.18010      0.09097      0.00489      0.16041      0.05265      
23800   0.68719    0.21364    0.27869    0.00718      0.17855      0.09123      0.00631      0.15962      0.05410      
23900   0.69788    0.21668    0.28309    0.00802      0.18090      0.09200      0.00649      0.16070      0.04415      
24000   0.68822    0.21371    0.27887    0.00840      0.17823      0.09001      0.00639      0.16238      0.04952      
24100   0.67742    0.21023    0.27471    0.00654      0.17639      0.09548      0.00428      0.16009      0.04562      
24200   0.68161    0.21195    0.27664    0.00738      0.17548      0.10154      0.00514      0.16433      0.07078      
24300   0.68182    0.21183    0.27649    0.00656      0.17760      0.09336      0.00462      0.16536      0.04257      
24400   0.68156    0.21185    0.27613    0.00675      0.17723      0.09596      0.00449      0.16330      0.07308      
24500   0.67807    0.21036    0.27507    0.00682      0.17627      0.09552      0.00534      0.16360      0.05284      
24600   0.67388    0.20820    0.27283    0.00754      0.17468      0.10628      0.00566      0.16313      0.05494      
24700   0.66614    0.20559    0.26932    0.00685      0.17508      0.09297      0.00747      0.16628      0.04319      
24800   0.66107    0.20333    0.26704    0.00751      0.17348      0.09721      0.00541      0.16791      0.05440      
24900   0.66461    0.20477    0.26844    0.00751      0.17427      0.09625      0.00441      0.16594      0.04783      
25000   0.67367    0.20795    0.27259    0.00756      0.17478      0.10783      0.00648      0.16812      0.07529      
25100   0.66546    0.20559    0.26962    0.00706      0.17366      0.09528      0.00692      0.16785      0.05094      
25200   0.65003    0.20090    0.26321    0.00674      0.16981      0.09365      0.00555      0.16800      0.05533      
25300   0.66196    0.20505    0.26779    0.00654      0.17273      0.09855      0.00494      0.16769      0.05795      
25400   0.66010    0.20430    0.26692    0.00663      0.17280      0.09440      0.00619      0.16672      0.05496      
25500   0.65377    0.20270    0.26413    0.00649      0.17094      0.09506      0.00427      0.16573      0.04757      
25600   0.65678    0.20306    0.26553    0.00743      0.17073      0.10032      0.00387      0.16832      0.04732      
25700   0.64994    0.20057    0.26264    0.00681      0.17021      0.09705      0.00588      0.16639      0.05895      
25800   0.65143    0.20106    0.26332    0.00619      0.17183      0.09029      0.00523      0.16823      0.05284      
25900   0.65179    0.20063    0.26318    0.00858      0.17019      0.09208      0.00544      0.17120      0.05667      
26000   0.65042    0.20087    0.26254    0.00649      0.17116      0.09363      0.00506      0.16976      0.04687      
26100   0.65004    0.20036    0.26161    0.00672      0.17190      0.09454      0.00755      0.17378      0.05922      
26200   0.64170    0.19761    0.25873    0.00669      0.16950      0.09165      0.00520      0.16917      0.04939      
26300   0.63185    0.19449    0.25430    0.00625      0.16755      0.09271      0.00629      0.16707      0.06068      
26400   0.64122    0.19709    0.25807    0.00733      0.16992      0.08823      0.00597      0.17226      0.04372      
26500   0.64390    0.19764    0.25920    0.00721      0.17029      0.09569      0.00666      0.16579      0.05379      
26600   0.63235    0.19386    0.25451    0.00640      0.16834      0.09238      0.00475      0.16653      0.05166      
26700   0.63493    0.19460    0.25553    0.00700      0.16849      0.09307      0.00601      0.16468      0.05212      
26800   0.63847    0.19551    0.25668    0.00735      0.16925      0.09687      0.00509      0.16536      0.05473      
26900   0.62591    0.19107    0.25138    0.00649      0.16738      0.09593      0.00638      0.16274      0.05377      
27000   0.62081    0.18946    0.24958    0.00708      0.16514      0.09564      0.00657      0.15590      0.04783      
27100   0.63141    0.19253    0.25369    0.00789      0.16762      0.09681      0.00638      0.15816      0.05760      
27200   0.63713    0.19487    0.25594    0.00655      0.17078      0.08991      0.00447      0.16257      0.04725      
27300   0.62690    0.19140    0.25177    0.00631      0.16833      0.09099      0.00382      0.15882      0.04566      
27400   0.62776    0.19189    0.25227    0.00699      0.16761      0.09002      0.00782      0.15971      0.04895      
27500   0.62840    0.19186    0.25269    0.00758      0.16662      0.09642      0.00938      0.15877      0.05673      
27600   0.62032    0.18900    0.24911    0.00669      0.16693      0.08593      0.00530      0.15548      0.04859      
27700   0.62357    0.18992    0.25029    0.00668      0.16765      0.09028      0.00575      0.15823      0.05636      
27800   0.61797    0.18821    0.24802    0.00639      0.16682      0.08534      0.00628      0.15853      0.04551      
27900   0.62211    0.18910    0.24955    0.00760      0.16718      0.08691      0.00813      0.15831      0.04840      
28000   0.62437    0.19014    0.25063    0.00728      0.16731      0.09025      0.00647      0.16072      0.05741      
28100   0.61743    0.18769    0.24789    0.00657      0.16625      0.09030      0.00506      0.16641      0.05935      
28200   0.61295    0.18662    0.24559    0.00652      0.16507      0.09146      0.00401      0.15908      0.05076      
28300   0.61538    0.18711    0.24652    0.00646      0.16615      0.09135      0.00644      0.16147      0.05312      
28400   0.60934    0.18528    0.24424    0.00597      0.16500      0.08859      0.00457      0.15918      0.05110      
28500   0.61572    0.18688    0.24650    0.00693      0.16642      0.08983      0.00446      0.16028      0.05145      
28600   0.60803    0.18396    0.24358    0.00661      0.16548      0.08403      0.00390      0.16266      0.04821      
28700   0.60647    0.18407    0.24285    0.00591      0.16475      0.08887      0.00440      0.16367      0.04776      
28800   0.61185    0.18577    0.24468    0.00715      0.16566      0.08589      0.00781      0.16160      0.04361      
28900   0.60976    0.18510    0.24355    0.00634      0.16572      0.09053      0.00424      0.15957      0.04583      
29000   0.59679    0.18108    0.23817    0.00620      0.16284      0.08505      0.00641      0.16241      0.04652      
29100   0.60363    0.18288    0.24139    0.00615      0.16369      0.09525      0.00659      0.16079      0.05155      
29200   0.59657    0.18037    0.23813    0.00591      0.16375      0.08403      0.00638      0.15906      0.04347      
29300   0.59950    0.18155    0.23932    0.00612      0.16424      0.08278      0.00533      0.15910      0.04579      
29400   0.59819    0.18096    0.23858    0.00678      0.16323      0.08632      0.00721      0.15945      0.04601      
29500   0.59784    0.18037    0.23858    0.00681      0.16356      0.08518      0.00365      0.16079      0.05209      
29600   0.59533    0.17982    0.23730    0.00655      0.16344      0.08216      0.00632      0.16003      0.04350      
29700   0.59377    0.17891    0.23661    0.00677      0.16252      0.08972      0.00366      0.15642      0.06212      
29800   0.59541    0.17967    0.23725    0.00645      0.16322      0.08819      0.00473      0.16017      0.04534      
29900   0.58770    0.17703    0.23416    0.00659      0.16127      0.08640      0.00623      0.15522      0.06072      
30000   0.58583    0.17599    0.23294    0.00696      0.16181      0.08127      0.00538      0.15398      0.04860      
30100   0.58672    0.17626    0.23307    0.00608      0.16263      0.08680      0.00359      0.15537      0.04485      
30200   0.58593    0.17631    0.23320    0.00654      0.16202      0.07859      0.00502      0.15325      0.04177      
30300   0.58287    0.17549    0.23145    0.00658      0.16139      0.07954      0.00428      0.15551      0.04064      
30400   0.58063    0.17437    0.23032    0.00582      0.16211      0.08019      0.00453      0.15374      0.05000      
30500   0.58020    0.17378    0.22993    0.00653      0.16207      0.07875      0.00461      0.15414      0.04111      
30600   0.57202    0.17131    0.22678    0.00566      0.16029      0.07987      0.00425      0.15865      0.03614      
30700   0.57384    0.17146    0.22721    0.00651      0.16035      0.08305      0.00631      0.15497      0.04099      
30800   0.57699    0.17249    0.22806    0.00670      0.16141      0.08325      0.00551      0.15624      0.04546      
30900   0.56868    0.17004    0.22514    0.00570      0.15981      0.07985      0.00512      0.15656      0.03816      
31000   0.56454    0.16859    0.22339    0.00614      0.15834      0.08084      0.00438      0.15535      0.04763      
31100   0.56372    0.16869    0.22305    0.00566      0.15822      0.08091      0.00460      0.15811      0.04548      
31200   0.56721    0.16959    0.22448    0.00574      0.15986      0.07541      0.00442      0.15508      0.04164      
31300   0.56348    0.16820    0.22284    0.00628      0.15857      0.07584      0.00395      0.15716      0.04332      
31400   0.56631    0.16881    0.22359    0.00635      0.15997      0.07579      0.00741      0.15997      0.04287      
31500   0.56661    0.16946    0.22399    0.00630      0.15891      0.07954      0.00426      0.15833      0.04866      
31600   0.56080    0.16740    0.22145    0.00586      0.15815      0.07946      0.00326      0.15604      0.04247      
31700   0.55860    0.16677    0.22057    0.00558      0.15765      0.08032      0.00440      0.15785      0.05663      
31800   0.56037    0.16696    0.22105    0.00613      0.15871      0.07523      0.00551      0.15732      0.04469      
31900   0.55736    0.16633    0.21987    0.00557      0.15771      0.07880      0.00542      0.15851      0.03927      
32000   0.55939    0.16675    0.22048    0.00579      0.15849      0.07871      0.00434      0.15449      0.04403      
32100   0.55627    0.16567    0.21924    0.00565      0.15802      0.07693      0.00461      0.15192      0.03863      
32200   0.56209    0.16709    0.22139    0.00596      0.15962      0.08029      0.00673      0.15994      0.04707      
32300   0.55678    0.16462    0.21886    0.00621      0.15881      0.08280      0.00529      0.15938      0.04430      
32400   0.55164    0.16358    0.21681    0.00552      0.15791      0.07809      0.00443      0.15426      0.04394      
32500   0.55097    0.16324    0.21677    0.00542      0.15789      0.07647      0.00431      0.15524      0.03946      
32600   0.55366    0.16341    0.21720    0.00608      0.15943      0.07550      0.00466      0.15713      0.04094      
32700   0.54476    0.16090    0.21415    0.00562      0.15655      0.07539      0.00437      0.15141      0.04100      
32800   0.54731    0.16175    0.21498    0.00611      0.15647      0.07996      0.00470      0.15270      0.05035      
32900   0.54910    0.16205    0.21596    0.00626      0.15691      0.07913      0.00743      0.15085      0.05047      
33000   0.54302    0.16060    0.21333    0.00546      0.15605      0.07587      0.00581      0.15133      0.04020      
33100   0.54183    0.15978    0.21306    0.00575      0.15548      0.07753      0.00569      0.14993      0.05067      
33200   0.54358    0.16035    0.21391    0.00598      0.15547      0.07874      0.00365      0.15166      0.04420      
33300   0.54737    0.16177    0.21515    0.00649      0.15605      0.07912      0.00541      0.15225      0.04212      
33400   0.54414    0.16079    0.21375    0.00634      0.15524      0.08022      0.00466      0.15535      0.05384      
33500   0.54645    0.16131    0.21457    0.00643      0.15584      0.08294      0.00799      0.15075      0.04856      
33600   0.54044    0.15965    0.21195    0.00546      0.15559      0.07778      0.00450      0.15019      0.04884      
33700   0.53912    0.15952    0.21157    0.00593      0.15456      0.07536      0.00540      0.15276      0.03907      
33800   0.54160    0.16059    0.21242    0.00579      0.15506      0.07753      0.00617      0.14958      0.03823      
33900   0.53796    0.15938    0.21102    0.00581      0.15404      0.07715      0.00592      0.14984      0.03866      
34000   0.54168    0.16004    0.21205    0.00603      0.15476      0.08805      0.00580      0.15086      0.04447      
34100   0.53958    0.15960    0.21138    0.00585      0.15486      0.07892      0.00521      0.15295      0.04528      
34200   0.53515    0.15818    0.20939    0.00605      0.15349      0.08031      0.00472      0.15019      0.04122      
34300   0.53501    0.15771    0.20916    0.00627      0.15377      0.08094      0.00532      0.15194      0.03660      
34400   0.54160    0.15958    0.21192    0.00573      0.15590      0.08472      0.00326      0.15255      0.04256      
34500   0.53848    0.15823    0.21068    0.00557      0.15579      0.08203      0.00475      0.15261      0.04304      
34600   0.53588    0.15771    0.20969    0.00546      0.15498      0.08032      0.00424      0.15521      0.03806      
34700   0.53819    0.15737    0.21021    0.00666      0.15609      0.07864      0.00777      0.15624      0.04851      
34800   0.52943    0.15513    0.20692    0.00582      0.15354      0.08005      0.00475      0.15067      0.04044      
34900   0.53161    0.15530    0.20737    0.00669      0.15417      0.08083      0.00822      0.15067      0.04079      
35000   0.52971    0.15514    0.20636    0.00618      0.15407      0.07953      0.00485      0.15141      0.04770      
35100   0.52230    0.15260    0.20381    0.00550      0.15258      0.07808      0.00455      0.14883      0.03884      
35200   0.53163    0.15540    0.20729    0.00605      0.15509      0.07802      0.00603      0.15020      0.03631      
35300   0.52742    0.15354    0.20517    0.00614      0.15414      0.08444      0.00407      0.15023      0.04565      
35400   0.52506    0.15286    0.20439    0.00586      0.15429      0.07645      0.00509      0.15011      0.04103      
35500   0.52335    0.15251    0.20347    0.00607      0.15316      0.08139      0.00548      0.15470      0.03781      
35600   0.52270    0.15221    0.20312    0.00587      0.15379      0.07716      0.00397      0.15146      0.03624      
35700   0.52235    0.15234    0.20288    0.00593      0.15349      0.07713      0.00520      0.15114      0.04209      
35800   0.52089    0.15161    0.20249    0.00561      0.15301      0.08173      0.00474      0.15409      0.04376      
35900   0.51882    0.15091    0.20151    0.00602      0.15249      0.07885      0.00594      0.15214      0.04073      
36000   0.52249    0.15211    0.20281    0.00616      0.15248      0.08937      0.00569      0.15271      0.06646      
36100   0.52036    0.15136    0.20192    0.00622      0.15295      0.07924      0.00539      0.15231      0.04389      
36200   0.51527    0.14944    0.20011    0.00593      0.15222      0.07559      0.00468      0.15199      0.03580      
36300   0.51899    0.15042    0.20143    0.00619      0.15347      0.07488      0.00446      0.15223      0.03499      
36400   0.51524    0.14946    0.19987    0.00599      0.15227      0.07644      0.00437      0.14993      0.03612      
36500   0.51242    0.14881    0.19895    0.00578      0.15056      0.08311      0.00449      0.14894      0.03969      
36600   0.51063    0.14794    0.19807    0.00601      0.15080      0.07808      0.00525      0.14938      0.03957      
36700   0.51325    0.14882    0.19903    0.00588      0.15190      0.07615      0.00733      0.15106      0.03736      
36800   0.51259    0.14857    0.19874    0.00572      0.15126      0.08290      0.00479      0.15158      0.03995      
36900   0.50879    0.14753    0.19708    0.00549      0.15114      0.07554      0.00561      0.15241      0.03264      
37000   0.51217    0.14841    0.19869    0.00586      0.15144      0.07773      0.00532      0.15094      0.04328      
37100   0.51225    0.14811    0.19852    0.00609      0.15172      0.07804      0.00617      0.14906      0.03522      
37200   0.50782    0.14672    0.19675    0.00555      0.15110      0.07703      0.00459      0.14967      0.03727      
37300   0.51172    0.14793    0.19832    0.00592      0.15180      0.07746      0.00417      0.15122      0.03910      
37400   0.51287    0.14799    0.19891    0.00569      0.15242      0.07859      0.00468      0.15400      0.03738      
37500   0.51284    0.14783    0.19884    0.00575      0.15287      0.07553      0.00418      0.15229      0.03348      
37600   0.51009    0.14711    0.19749    0.00556      0.15246      0.07467      0.00502      0.15376      0.03531      
37700   0.50849    0.14663    0.19700    0.00541      0.15185      0.07605      0.00469      0.15358      0.03500      
37800   0.51047    0.14703    0.19761    0.00558      0.15237      0.07877      0.00363      0.15145      0.03776      
37900   0.51132    0.14725    0.19804    0.00620      0.15185      0.07977      0.00377      0.15300      0.04162      
38000   0.50508    0.14537    0.19544    0.00561      0.15089      0.07764      0.00425      0.15221      0.04473      
38100   0.50462    0.14501    0.19509    0.00576      0.15120      0.07547      0.00499      0.15287      0.04096      
38200   0.50220    0.14398    0.19394    0.00609      0.15060      0.07593      0.00428      0.15341      0.03806      
38300   0.50087    0.14354    0.19324    0.00562      0.15074      0.07726      0.00538      0.15235      0.03595      
38400   0.50208    0.14386    0.19367    0.00568      0.15114      0.07733      0.00455      0.15212      0.03710      
38500   0.49710    0.14252    0.19163    0.00540      0.14947      0.08079      0.00473      0.15172      0.03977      
38600   0.49850    0.14232    0.19197    0.00644      0.15015      0.07620      0.00440      0.15145      0.03699      
38700   0.49553    0.14186    0.19099    0.00578      0.14936      0.07527      0.00508      0.14892      0.03880      
38800   0.49698    0.14220    0.19108    0.00516      0.15056      0.07972      0.00474      0.15127      0.03954      
38900   0.49284    0.14107    0.18956    0.00557      0.14882      0.07813      0.00356      0.15200      0.03885      
39000   0.49458    0.14121    0.19007    0.00530      0.15031      0.07687      0.00447      0.15406      0.03962      
39100   0.49294    0.14076    0.18938    0.00570      0.14919      0.07906      0.00369      0.15041      0.04085      
39200   0.49355    0.14054    0.18965    0.00599      0.14948      0.07889      0.00638      0.15132      0.04301      
39300   0.49545    0.14088    0.19011    0.00548      0.15124      0.07732      0.00407      0.15267      0.03682      
39400   0.49180    0.13989    0.18868    0.00534      0.15024      0.07663      0.00446      0.15146      0.04878      
39500   0.48883    0.13842    0.18750    0.00569      0.14902      0.08205      0.00526      0.14836      0.04489      
39600   0.48908    0.13838    0.18757    0.00556      0.14978      0.07792      0.00480      0.14911      0.03927      
39700   0.48692    0.13755    0.18642    0.00567      0.14939      0.07894      0.00424      0.14936      0.04754      
39800   0.48017    0.13534    0.18388    0.00574      0.14771      0.07504      0.00539      0.14878      0.03639      
39900   0.48207    0.13535    0.18429    0.00584      0.14859      0.07993      0.00619      0.14894      0.03982      
40000   0.47854    0.13469    0.18301    0.00552      0.14787      0.07451      0.00477      0.15011      0.03577      
40100   0.47822    0.13468    0.18276    0.00546      0.14795      0.07370      0.00506      0.14990      0.03569      
40200   0.48059    0.13489    0.18367    0.00500      0.14932      0.07698      0.00408      0.15133      0.03466      
40300   0.48300    0.13543    0.18444    0.00552      0.15004      0.07559      0.00407      0.14772      0.03422      
40400   0.47733    0.13378    0.18225    0.00569      0.14811      0.07500      0.00421      0.14862      0.03879      
40500   0.47439    0.13290    0.18111    0.00516      0.14788      0.07342      0.00446      0.15073      0.03727      
40600   0.47963    0.13430    0.18301    0.00607      0.14855      0.07698      0.00631      0.15106      0.03791      
40700   0.47315    0.13277    0.18059    0.00537      0.14707      0.07351      0.00541      0.14891      0.03411      
40800   0.47227    0.13219    0.18033    0.00545      0.14696      0.07330      0.00422      0.14790      0.03537      
40900   0.47099    0.13171    0.17987    0.00550      0.14621      0.07704      0.00467      0.14770      0.03916      
41000   0.47023    0.13127    0.17944    0.00541      0.14630      0.07817      0.00325      0.14645      0.03404      
41100   0.46805    0.13107    0.17865    0.00525      0.14569      0.07386      0.00541      0.14562      0.03741      
41200   0.46925    0.13154    0.17922    0.00549      0.14550      0.07493      0.00507      0.14719      0.03901      
41300   0.46932    0.13140    0.17926    0.00559      0.14564      0.07416      0.00497      0.14670      0.03571      
41400   0.46988    0.13177    0.17951    0.00512      0.14611      0.07363      0.00423      0.14462      0.03890      
41500   0.46731    0.13087    0.17848    0.00542      0.14479      0.07741      0.00490      0.14647      0.04079      
41600   0.46938    0.13133    0.17933    0.00520      0.14595      0.07560      0.00429      0.14546      0.03461      
41700   0.46700    0.13042    0.17826    0.00532      0.14570      0.07304      0.00430      0.14594      0.03819      
41800   0.46658    0.13014    0.17773    0.00548      0.14562      0.07613      0.00506      0.14488      0.04282      
41900   0.46534    0.13015    0.17754    0.00521      0.14493      0.07504      0.00363      0.14528      0.04596      
42000   0.46714    0.13076    0.17835    0.00597      0.14469      0.07369      0.00652      0.14563      0.03603      
42100   0.46095    0.12892    0.17600    0.00484      0.14382      0.07371      0.00410      0.14333      0.03561      
42200   0.46294    0.12932    0.17660    0.00508      0.14460      0.07328      0.00384      0.14548      0.03985      
42300   0.46183    0.12880    0.17596    0.00493      0.14482      0.07326      0.00489      0.14649      0.03391      
42400   0.46150    0.12922    0.17599    0.00515      0.14393      0.07210      0.00519      0.14530      0.03417      
42500   0.45961    0.12831    0.17525    0.00493      0.14364      0.07471      0.00485      0.14279      0.04444      
42600   0.45926    0.12805    0.17525    0.00537      0.14309      0.07497      0.00511      0.14496      0.03836      
42700   0.45897    0.12800    0.17511    0.00514      0.14341      0.07312      0.00542      0.14280      0.03491      
42800   0.46055    0.12877    0.17562    0.00495      0.14359      0.07620      0.00421      0.14604      0.04013      
42900   0.45816    0.12785    0.17459    0.00519      0.14319      0.07344      0.00460      0.14519      0.03938      
43000   0.45909    0.12796    0.17482    0.00483      0.14421      0.07270      0.00386      0.14415      0.03619      
43100   0.45789    0.12776    0.17437    0.00512      0.14308      0.07548      0.00475      0.14463      0.03871      
43200   0.45547    0.12695    0.17338    0.00550      0.14229      0.07353      0.00534      0.14494      0.03701      
43300   0.45704    0.12699    0.17393    0.00533      0.14335      0.07444      0.00613      0.14603      0.03676      
43400   0.45307    0.12546    0.17226    0.00518      0.14289      0.07290      0.00411      0.14688      0.03491      
43500   0.45221    0.12549    0.17177    0.00502      0.14249      0.07438      0.00387      0.14735      0.03647      
43600   0.45209    0.12528    0.17174    0.00480      0.14288      0.07383      0.00533      0.14535      0.03810      
43700   0.44807    0.12366    0.17019    0.00538      0.14167      0.07178      0.00572      0.14426      0.03451      
43800   0.45157    0.12471    0.17121    0.00500      0.14319      0.07462      0.00424      0.14481      0.03581      
43900   0.45062    0.12472    0.17109    0.00543      0.14192      0.07464      0.00387      0.14496      0.03607      
44000   0.45142    0.12483    0.17115    0.00487      0.14313      0.07453      0.00339      0.14486      0.03430      
44100   0.44889    0.12428    0.17026    0.00495      0.14189      0.07505      0.00426      0.14393      0.03629      
44200   0.44959    0.12423    0.17077    0.00493      0.14197      0.07687      0.00403      0.14561      0.04402      
44300   0.44902    0.12405    0.17029    0.00501      0.14227      0.07400      0.00489      0.14305      0.03406      
44400   0.44858    0.12408    0.17009    0.00541      0.14177      0.07232      0.00489      0.14557      0.03503      
44500   0.44800    0.12388    0.16991    0.00503      0.14178      0.07399      0.00349      0.14448      0.03476      
44600   0.44658    0.12301    0.16917    0.00516      0.14181      0.07428      0.00456      0.14492      0.03658      
44700   0.44668    0.12299    0.16936    0.00484      0.14212      0.07362      0.00395      0.14688      0.03517      
44800   0.44696    0.12288    0.16938    0.00558      0.14197      0.07140      0.00435      0.14643      0.04076      
44900   0.44604    0.12264    0.16884    0.00536      0.14187      0.07319      0.00401      0.14561      0.03426      
45000   0.44706    0.12284    0.16916    0.00540      0.14205      0.07608      0.00463      0.14461      0.03899      
45100   0.44531    0.12233    0.16826    0.00494      0.14240      0.07375      0.00455      0.14432      0.04129      
45200   0.44262    0.12148    0.16707    0.00509      0.14183      0.07142      0.00380      0.14569      0.03697      
45300   0.44207    0.12142    0.16691    0.00499      0.14160      0.07146      0.00399      0.14341      0.03511      
45400   0.44279    0.12115    0.16711    0.00519      0.14229      0.07047      0.00489      0.14604      0.03515      
45500   0.44234    0.12127    0.16693    0.00518      0.14177      0.07192      0.00543      0.14559      0.03528      
45600   0.43906    0.12020    0.16568    0.00501      0.14091      0.07268      0.00398      0.14446      0.03516      
45700   0.43868    0.12018    0.16540    0.00520      0.14083      0.07088      0.00367      0.14622      0.03788      
45800   0.43922    0.12020    0.16570    0.00521      0.14085      0.07255      0.00574      0.14535      0.03715      
45900   0.43829    0.11969    0.16517    0.00530      0.14070      0.07431      0.00630      0.14460      0.03845      
46000   0.43492    0.11863    0.16380    0.00518      0.14014      0.07166      0.00428      0.14464      0.03328      
46100   0.43525    0.11841    0.16382    0.00530      0.14034      0.07374      0.00558      0.14452      0.03944      
46200   0.43443    0.11823    0.16366    0.00493      0.14042      0.07182      0.00493      0.14258      0.03418      
46300   0.43242    0.11766    0.16275    0.00510      0.13939      0.07518      0.00467      0.14196      0.03869      
46400   0.43140    0.11724    0.16242    0.00504      0.13946      0.07227      0.00482      0.14290      0.03360      
46500   0.43506    0.11841    0.16397    0.00531      0.13996      0.07411      0.00452      0.14316      0.03971      
46600   0.43370    0.11844    0.16337    0.00485      0.13959      0.07445      0.00407      0.14346      0.03723      
46700   0.43306    0.11814    0.16307    0.00523      0.13942      0.07200      0.00379      0.14596      0.03531      
46800   0.43363    0.11824    0.16313    0.00491      0.14000      0.07334      0.00392      0.14610      0.03404      
46900   0.42999    0.11729    0.16183    0.00496      0.13863      0.07282      0.00490      0.14410      0.03328      
47000   0.43016    0.11712    0.16175    0.00496      0.13914      0.07183      0.00450      0.14193      0.03494      
47100   0.42832    0.11659    0.16103    0.00525      0.13811      0.07343      0.00490      0.14163      0.03542      
47200   0.42808    0.11652    0.16077    0.00502      0.13854      0.07223      0.00440      0.14111      0.03462      
47300   0.42715    0.11618    0.16028    0.00490      0.13839      0.07401      0.00469      0.14329      0.03801      
47400   0.42522    0.11500    0.15948    0.00469      0.13868      0.07375      0.00466      0.14287      0.03400      
47500   0.42427    0.11433    0.15907    0.00475      0.13899      0.07131      0.00482      0.14237      0.03566      
47600   0.42201    0.11402    0.15821    0.00477      0.13775      0.07258      0.00521      0.14098      0.03275      
47700   0.42128    0.11381    0.15791    0.00522      0.13718      0.07169      0.00534      0.13937      0.03486      
47800   0.42030    0.11344    0.15749    0.00474      0.13741      0.07209      0.00356      0.14056      0.03082      
47900   0.42049    0.11348    0.15752    0.00503      0.13720      0.07254      0.00421      0.13820      0.03618      
48000   0.42090    0.11328    0.15755    0.00496      0.13801      0.07085      0.00392      0.13946      0.03118      
48100   0.41952    0.11279    0.15712    0.00480      0.13762      0.07185      0.00420      0.14006      0.03162      
48200   0.41707    0.11229    0.15608    0.00491      0.13675      0.07035      0.00419      0.14047      0.03324      
48300   0.41871    0.11241    0.15662    0.00508      0.13747      0.07133      0.00432      0.14009      0.03479      
48400   0.41769    0.11197    0.15641    0.00465      0.13740      0.07250      0.00454      0.14198      0.04055      
48500   0.41748    0.11222    0.15624    0.00489      0.13700      0.07136      0.00431      0.14100      0.03255      
48600   0.41791    0.11222    0.15632    0.00477      0.13740      0.07202      0.00443      0.13975      0.03405      
48700   0.41582    0.11163    0.15540    0.00462      0.13721      0.06965      0.00397      0.14093      0.03120      
48800   0.41621    0.11156    0.15553    0.00495      0.13640      0.07764      0.00444      0.14104      0.04805      
48900   0.41761    0.11206    0.15610    0.00506      0.13724      0.07153      0.00386      0.14209      0.03631      
49000   0.41671    0.11187    0.15567    0.00479      0.13736      0.07022      0.00473      0.14256      0.03342      
49100   0.41693    0.11137    0.15550    0.00498      0.13783      0.07251      0.00456      0.14234      0.04047      
49200   0.41351    0.11056    0.15451    0.00456      0.13694      0.06940      0.00348      0.14075      0.03407      
49300   0.41490    0.11098    0.15490    0.00487      0.13715      0.07000      0.00545      0.13847      0.03188      
49400   0.41293    0.11020    0.15415    0.00462      0.13675      0.07211      0.00437      0.13879      0.04116      
49500   0.41396    0.11065    0.15447    0.00515      0.13660      0.07095      0.00394      0.13895      0.04318      
49600   0.41138    0.10994    0.15340    0.00486      0.13608      0.07102      0.00392      0.14005      0.04285      
49700   0.41130    0.10994    0.15340    0.00472      0.13626      0.06981      0.00385      0.14204      0.03613      
49800   0.41127    0.10974    0.15339    0.00488      0.13620      0.07053      0.00389      0.13922      0.03724      
49900   0.40825    0.10898    0.15224    0.00471      0.13546      0.06875      0.00545      0.13871      0.03488      
50000   0.40967    0.10911    0.15262    0.00485      0.13604      0.07039      0.00383      0.14073      0.03294      
50100   0.40947    0.10901    0.15261    0.00471      0.13626      0.06879      0.00481      0.13956      0.03414      
50200   0.40738    0.10830    0.15181    0.00473      0.13551      0.07039      0.00408      0.14081      0.03812      
50300   0.40762    0.10818    0.15180    0.00506      0.13536      0.07208      0.00532      0.13960      0.04394      
50400   0.40699    0.10777    0.15160    0.00502      0.13540      0.07199      0.00437      0.13892      0.03868      
50500   0.40649    0.10776    0.15150    0.00494      0.13526      0.07031      0.00394      0.13908      0.03472      
50600   0.40447    0.10714    0.15070    0.00480      0.13473      0.07101      0.00493      0.13810      0.03532      
50700   0.40443    0.10731    0.15068    0.00499      0.13430      0.07142      0.00511      0.13738      0.03553      
50800   0.40380    0.10674    0.15039    0.00474      0.13482      0.07112      0.00475      0.13952      0.03530      
50900   0.40094    0.10593    0.14943    0.00491      0.13353      0.07139      0.00404      0.13756      0.03670      
51000   0.40093    0.10612    0.14936    0.00463      0.13370      0.07121      0.00468      0.13726      0.03347      
51100   0.40060    0.10604    0.14921    0.00475      0.13344      0.07158      0.00442      0.13743      0.03255      
51200   0.40040    0.10589    0.14901    0.00461      0.13385      0.07051      0.00400      0.13642      0.03335      
51300   0.39956    0.10553    0.14863    0.00482      0.13339      0.07191      0.00529      0.13679      0.03769      
51400   0.39951    0.10565    0.14858    0.00457      0.13350      0.07202      0.00466      0.13639      0.03377      
51500   0.39749    0.10526    0.14778    0.00469      0.13258      0.07188      0.00385      0.13525      0.03643      
51600   0.39858    0.10572    0.14812    0.00454      0.13299      0.07213      0.00420      0.13652      0.03936      
51700   0.39675    0.10497    0.14739    0.00466      0.13249      0.07236      0.00458      0.13570      0.03707      
51800   0.39885    0.10566    0.14820    0.00458      0.13318      0.07243      0.00503      0.13762      0.04095      
51900   0.39705    0.10513    0.14751    0.00471      0.13263      0.07071      0.00490      0.13536      0.03263      
52000   0.39809    0.10523    0.14785    0.00480      0.13299      0.07226      0.00384      0.13643      0.03676      
52100   0.39682    0.10486    0.14741    0.00473      0.13261      0.07209      0.00430      0.13615      0.03422      
52200   0.39714    0.10511    0.14747    0.00459      0.13287      0.07087      0.00409      0.13441      0.03456      
52300   0.39738    0.10488    0.14757    0.00460      0.13308      0.07244      0.00336      0.13628      0.03423      
52400   0.39647    0.10482    0.14730    0.00468      0.13239      0.07280      0.00360      0.13573      0.03742      
52500   0.39626    0.10457    0.14702    0.00463      0.13301      0.07042      0.00434      0.13429      0.03499      
52600   0.39548    0.10451    0.14683    0.00460      0.13249      0.07044      0.00426      0.13529      0.03305      
52700   0.39421    0.10411    0.14631    0.00460      0.13214      0.07044      0.00438      0.13531      0.03308      
52800   0.39614    0.10474    0.14700    0.00466      0.13262      0.07120      0.00425      0.13454      0.03601      
52900   0.39418    0.10406    0.14629    0.00469      0.13211      0.07029      0.00469      0.13354      0.03828      
53000   0.39491    0.10407    0.14674    0.00465      0.13226      0.07181      0.00299      0.13590      0.03206      
53100   0.39576    0.10430    0.14696    0.00467      0.13295      0.06886      0.00476      0.13373      0.03312      
53200   0.39340    0.10348    0.14607    0.00458      0.13221      0.07055      0.00339      0.13436      0.03211      
53300   0.39282    0.10323    0.14584    0.00453      0.13221      0.07012      0.00382      0.13395      0.03323      
53400   0.39367    0.10357    0.14614    0.00495      0.13203      0.06977      0.00341      0.13414      0.03486      
53500   0.39216    0.10327    0.14563    0.00458      0.13155      0.07130      0.00451      0.13510      0.03718      
53600   0.39071    0.10285    0.14505    0.00472      0.13101      0.07079      0.00528      0.13310      0.03324      
53700   0.39210    0.10322    0.14551    0.00481      0.13137      0.07199      0.00392      0.13420      0.03931      
53800   0.39162    0.10306    0.14530    0.00483      0.13155      0.06884      0.00497      0.13337      0.03512      
53900   0.39132    0.10300    0.14518    0.00484      0.13147      0.06828      0.00457      0.13395      0.03575      
54000   0.39223    0.10280    0.14551    0.00482      0.13208      0.07013      0.00471      0.13427      0.03814      
54100   0.38981    0.10209    0.14463    0.00451      0.13163      0.06949      0.00394      0.13271      0.03137      
54200   0.38993    0.10186    0.14454    0.00444      0.13213      0.06956      0.00494      0.13377      0.03462      
54300   0.38736    0.10151    0.14357    0.00447      0.13055      0.07256      0.00424      0.13371      0.03446      
54400   0.38556    0.10095    0.14286    0.00464      0.13012      0.06988      0.00380      0.13307      0.03381      
54500   0.38858    0.10171    0.14405    0.00474      0.13123      0.06854      0.00373      0.13339      0.03851      
54600   0.38675    0.10113    0.14335    0.00484      0.13046      0.06971      0.00349      0.13070      0.03636      
54700   0.38727    0.10122    0.14342    0.00481      0.13078      0.07032      0.00468      0.13132      0.03499      
54800   0.38465    0.10023    0.14249    0.00493      0.12991      0.07092      0.00341      0.13293      0.03756      
54900   0.38574    0.10080    0.14292    0.00464      0.13027      0.07103      0.00435      0.13302      0.03593      
55000   0.38478    0.10044    0.14252    0.00454      0.13030      0.06981      0.00419      0.13169      0.03606      
55100   0.38358    0.09975    0.14194    0.00481      0.13015      0.06927      0.00364      0.13293      0.03837      
55200   0.38332    0.09983    0.14188    0.00472      0.12989      0.07005      0.00401      0.13363      0.03603      
55300   0.38498    0.10026    0.14234    0.00460      0.13077      0.07012      0.00395      0.13393      0.03887      
55400   0.38421    0.10007    0.14202    0.00510      0.13009      0.06931      0.00384      0.13376      0.04275      
55500   0.38236    0.09943    0.14136    0.00476      0.12972      0.07093      0.00431      0.13267      0.03659      
55600   0.38173    0.09915    0.14110    0.00456      0.12999      0.06922      0.00428      0.13424      0.03839      
55700   0.38256    0.09919    0.14147    0.00482      0.13020      0.06875      0.00372      0.13257      0.03576      
55800   0.38063    0.09878    0.14065    0.00487      0.12945      0.06883      0.00496      0.13319      0.03316      
55900   0.38135    0.09881    0.14092    0.00494      0.12969      0.07001      0.00407      0.13118      0.03587      
56000   0.37964    0.09838    0.14028    0.00489      0.12919      0.06901      0.00444      0.13209      0.03484      
56100   0.37761    0.09776    0.13956    0.00464      0.12890      0.06758      0.00389      0.13291      0.03635      
56200   0.37953    0.09837    0.14023    0.00481      0.12927      0.06849      0.00423      0.13363      0.03550      
56300   0.37845    0.09803    0.13972    0.00475      0.12903      0.06921      0.00392      0.13266      0.03539      
56400   0.37942    0.09844    0.14010    0.00469      0.12927      0.06924      0.00350      0.13626      0.03330      
56500   0.37941    0.09843    0.14004    0.00507      0.12896      0.06916      0.00434      0.13406      0.04201      
56600   0.37931    0.09829    0.13995    0.00460      0.12976      0.06710      0.00459      0.13343      0.03498      
56700   0.37770    0.09776    0.13940    0.00459      0.12919      0.06757      0.00439      0.13429      0.03601      
56800   0.37867    0.09821    0.13966    0.00449      0.12965      0.06660      0.00404      0.13485      0.03499      
56900   0.37678    0.09729    0.13907    0.00467      0.12909      0.06655      0.00373      0.13424      0.03432      
57000   0.37595    0.09721    0.13864    0.00432      0.12918      0.06596      0.00427      0.13436      0.03319      
57100   0.37594    0.09721    0.13855    0.00442      0.12922      0.06531      0.00424      0.13446      0.03483      
57200   0.37591    0.09730    0.13850    0.00462      0.12882      0.06666      0.00403      0.13461      0.03872      
57300   0.37539    0.09735    0.13834    0.00447      0.12855      0.06674      0.00390      0.13583      0.03365      
57400   0.37591    0.09740    0.13837    0.00447      0.12904      0.06621      0.00529      0.13467      0.03556      
57500   0.37479    0.09718    0.13795    0.00475      0.12808      0.06826      0.00474      0.13446      0.03521      
57600   0.37564    0.09749    0.13834    0.00451      0.12879      0.06528      0.00498      0.13273      0.03648      
57700   0.37478    0.09713    0.13798    0.00453      0.12850      0.06640      0.00423      0.13274      0.03484      
57800   0.37337    0.09668    0.13749    0.00467      0.12806      0.06464      0.00414      0.13490      0.03490      
57900   0.37329    0.09671    0.13744    0.00447      0.12819      0.06481      0.00394      0.13349      0.03226      
58000   0.37309    0.09659    0.13726    0.00448      0.12799      0.06770      0.00360      0.13480      0.03374      
58100   0.37337    0.09639    0.13746    0.00449      0.12837      0.06661      0.00387      0.13477      0.03319      
58200   0.37232    0.09605    0.13705    0.00423      0.12824      0.06743      0.00404      0.13412      0.03372      
58300   0.37216    0.09601    0.13693    0.00457      0.12808      0.06577      0.00427      0.13362      0.03479      
58400   0.37073    0.09534    0.13635    0.00448      0.12787      0.06678      0.00462      0.13356      0.03459      
58500   0.36883    0.09505    0.13560    0.00421      0.12740      0.06574      0.00428      0.13393      0.03265      
58600   0.36901    0.09487    0.13570    0.00430      0.12749      0.06638      0.00436      0.13297      0.03287      
58700   0.37008    0.09521    0.13602    0.00444      0.12777      0.06636      0.00384      0.13076      0.03614      
58800   0.36945    0.09489    0.13583    0.00463      0.12750      0.06609      0.00452      0.13165      0.03532      
58900   0.36787    0.09458    0.13510    0.00475      0.12691      0.06539      0.00494      0.13127      0.03397      
59000   0.36692    0.09417    0.13474    0.00452      0.12686      0.06628      0.00403      0.13094      0.03628      
59100   0.36747    0.09430    0.13494    0.00455      0.12717      0.06510      0.00409      0.13088      0.03548      
59200   0.36502    0.09356    0.13407    0.00429      0.12648      0.06627      0.00402      0.13161      0.04190      
59300   0.36696    0.09407    0.13470    0.00458      0.12703      0.06582      0.00438      0.13090      0.03849      
59400   0.36742    0.09422    0.13484    0.00432      0.12741      0.06630      0.00378      0.12916      0.03873      
59500   0.36638    0.09371    0.13438    0.00451      0.12725      0.06526      0.00410      0.13001      0.03583      
59600   0.36632    0.09365    0.13425    0.00466      0.12700      0.06763      0.00445      0.12893      0.03793      
59700   0.36674    0.09379    0.13448    0.00460      0.12739      0.06484      0.00426      0.12741      0.03561      
59800   0.36589    0.09342    0.13413    0.00457      0.12720      0.06567      0.00420      0.12911      0.04074      
59900   0.36548    0.09331    0.13389    0.00432      0.12733      0.06638      0.00338      0.13090      0.03483      
60000   0.36393    0.09313    0.13324    0.00429      0.12667      0.06595      0.00336      0.13177      0.03676      
60100   0.36331    0.09279    0.13302    0.00467      0.12643      0.06402      0.00413      0.13199      0.03349      
60200   0.36322    0.09276    0.13304    0.00435      0.12646      0.06609      0.00318      0.13201      0.03713      
60300   0.36153    0.09240    0.13236    0.00418      0.12611      0.06494      0.00351      0.13055      0.03665      
60400   0.36368    0.09298    0.13314    0.00450      0.12671      0.06355      0.00462      0.13048      0.03280      
60500   0.36346    0.09303    0.13306    0.00457      0.12632      0.06485      0.00336      0.13041      0.03422      
60600   0.36280    0.09257    0.13277    0.00454      0.12647      0.06450      0.00439      0.13105      0.03816      
60700   0.36129    0.09224    0.13222    0.00421      0.12605      0.06589      0.00329      0.13236      0.03384      
60800   0.36092    0.09198    0.13214    0.00438      0.12590      0.06527      0.00446      0.13074      0.03651      
60900   0.36114    0.09199    0.13205    0.00450      0.12607      0.06530      0.00459      0.13091      0.04058      
61000   0.35912    0.09136    0.13137    0.00426      0.12569      0.06440      0.00343      0.13138      0.03470      
61100   0.35805    0.09095    0.13092    0.00409      0.12569      0.06399      0.00331      0.13032      0.03286      
61200   0.35966    0.09116    0.13152    0.00432      0.12617      0.06497      0.00326      0.13255      0.03756      
61300   0.35990    0.09127    0.13154    0.00435      0.12625      0.06479      0.00366      0.13234      0.03581      
61400   0.35916    0.09099    0.13133    0.00434      0.12596      0.06539      0.00350      0.13057      0.03484      
61500   0.35776    0.09039    0.13077    0.00450      0.12569      0.06411      0.00346      0.13101      0.03376      
61600   0.35583    0.08990    0.13002    0.00431      0.12506      0.06539      0.00357      0.13050      0.03386      
61700   0.35593    0.08997    0.13004    0.00452      0.12497      0.06435      0.00376      0.13051      0.03320      
61800   0.35778    0.09010    0.13052    0.00457      0.12596      0.06631      0.00444      0.12886      0.03903      
61900   0.35631    0.08996    0.13010    0.00434      0.12560      0.06314      0.00372      0.12931      0.03352      
62000   0.35457    0.08931    0.12950    0.00434      0.12501      0.06409      0.00395      0.12877      0.03448      
62100   0.35548    0.08942    0.12984    0.00430      0.12552      0.06396      0.00307      0.12928      0.03261      
62200   0.35548    0.08946    0.12982    0.00433      0.12534      0.06540      0.00329      0.12850      0.03279      
62300   0.35545    0.08941    0.12983    0.00424      0.12564      0.06327      0.00377      0.12978      0.03495      
62400   0.35542    0.08932    0.12983    0.00444      0.12525      0.06576      0.00316      0.12933      0.03477      
62500   0.35408    0.08911    0.12929    0.00442      0.12478      0.06479      0.00414      0.12814      0.03296      
62600   0.35450    0.08909    0.12943    0.00440      0.12520      0.06385      0.00419      0.12731      0.03701      
[...]
283800  0.21961    0.03861    0.07478    0.00317      0.09769      0.05358      0.00293      0.10968      0.02374      
283900  0.21961    0.03861    0.07478    0.00317      0.09769      0.05357      0.00293      0.10968      0.02375      
284000  0.21960    0.03861    0.07477    0.00317      0.09769      0.05358      0.00293      0.10967      0.02375      
284100  0.21959    0.03860    0.07477    0.00317      0.09769      0.05357      0.00293      0.10966      0.02374      
284200  0.21959    0.03860    0.07477    0.00317      0.09769      0.05358      0.00293      0.10967      0.02374      
284300  0.21958    0.03860    0.07476    0.00317      0.09768      0.05358      0.00293      0.10967      0.02375      
284400  0.21957    0.03860    0.07476    0.00317      0.09768      0.05357      0.00293      0.10967      0.02374      
284500  0.21957    0.03860    0.07476    0.00317      0.09768      0.05357      0.00294      0.10966      0.02373      
284600  0.21956    0.03860    0.07476    0.00317      0.09768      0.05356      0.00293      0.10966      0.02374      
284700  0.21955    0.03859    0.07475    0.00317      0.09768      0.05357      0.00293      0.10966      0.02373      
284800  0.21955    0.03859    0.07475    0.00317      0.09767      0.05356      0.00293      0.10965      0.02372      
284900  0.21954    0.03859    0.07475    0.00317      0.09767      0.05356      0.00293      0.10965      0.02372      
285000  0.21953    0.03859    0.07474    0.00317      0.09767      0.05356      0.00293      0.10966      0.02372      
285100  0.21953    0.03859    0.07474    0.00317      0.09767      0.05356      0.00293      0.10966      0.02372      
285200  0.21952    0.03858    0.07474    0.00317      0.09767      0.05355      0.00293      0.10966      0.02371      
285300  0.21951    0.03858    0.07473    0.00317      0.09766      0.05356      0.00293      0.10966      0.02372      
285400  0.21950    0.03858    0.07473    0.00317      0.09766      0.05356      0.00293      0.10966      0.02373      
285500  0.21950    0.03858    0.07473    0.00317      0.09766      0.05355      0.00293      0.10966      0.02372      
285600  0.21949    0.03858    0.07473    0.00317      0.09766      0.05355      0.00293      0.10965      0.02372      
285700  0.21948    0.03858    0.07472    0.00317      0.09766      0.05355      0.00293      0.10966      0.02373      
285800  0.21948    0.03857    0.07472    0.00317      0.09766      0.05355      0.00293      0.10965      0.02373      
285900  0.21947    0.03857    0.07472    0.00317      0.09765      0.05354      0.00293      0.10965      0.02372      
286000  0.21946    0.03857    0.07471    0.00317      0.09765      0.05355      0.00293      0.10965      0.02373      
286100  0.21945    0.03857    0.07471    0.00317      0.09765      0.05354      0.00293      0.10965      0.02372      
286200  0.21945    0.03857    0.07471    0.00317      0.09765      0.05354      0.00293      0.10965      0.02371      
286300  0.21944    0.03857    0.07470    0.00317      0.09764      0.05354      0.00293      0.10965      0.02371      
286400  0.21943    0.03856    0.07470    0.00317      0.09764      0.05354      0.00293      0.10965      0.02372      
286500  0.21943    0.03856    0.07470    0.00317      0.09764      0.05354      0.00293      0.10965      0.02372      
286600  0.21942    0.03856    0.07470    0.00317      0.09764      0.05354      0.00293      0.10964      0.02372      
286700  0.21941    0.03856    0.07469    0.00317      0.09763      0.05353      0.00293      0.10964      0.02372      
286800  0.21941    0.03856    0.07469    0.00317      0.09763      0.05353      0.00293      0.10965      0.02372      
286900  0.21940    0.03856    0.07469    0.00317      0.09763      0.05354      0.00293      0.10964      0.02373      
287000  0.21939    0.03855    0.07468    0.00317      0.09763      0.05353      0.00293      0.10964      0.02372      
287100  0.21938    0.03855    0.07468    0.00317      0.09763      0.05353      0.00293      0.10964      0.02372      
287200  0.21938    0.03855    0.07468    0.00317      0.09762      0.05352      0.00293      0.10963      0.02371      
287300  0.21937    0.03855    0.07467    0.00317      0.09762      0.05352      0.00293      0.10964      0.02372      
287400  0.21936    0.03855    0.07467    0.00317      0.09762      0.05352      0.00293      0.10964      0.02371      
287500  0.21936    0.03855    0.07467    0.00317      0.09762      0.05352      0.00293      0.10964      0.02372      
287600  0.21935    0.03854    0.07467    0.00317      0.09762      0.05353      0.00293      0.10964      0.02372      
287700  0.21934    0.03854    0.07466    0.00317      0.09762      0.05352      0.00293      0.10964      0.02372      
287800  0.21934    0.03854    0.07466    0.00317      0.09761      0.05352      0.00293      0.10963      0.02372      
287900  0.21933    0.03854    0.07466    0.00317      0.09761      0.05352      0.00293      0.10962      0.02373      
288000  0.21932    0.03854    0.07465    0.00317      0.09761      0.05352      0.00293      0.10963      0.02373      
288100  0.21932    0.03854    0.07465    0.00317      0.09761      0.05352      0.00293      0.10962      0.02373      
288200  0.21931    0.03853    0.07465    0.00317      0.09761      0.05352      0.00292      0.10963      0.02372      
288300  0.21930    0.03853    0.07465    0.00317      0.09760      0.05352      0.00293      0.10961      0.02372      
288400  0.21930    0.03853    0.07464    0.00317      0.09760      0.05351      0.00293      0.10961      0.02372      
288500  0.21929    0.03853    0.07464    0.00317      0.09760      0.05351      0.00293      0.10961      0.02372      
288600  0.21928    0.03853    0.07464    0.00317      0.09760      0.05350      0.00293      0.10961      0.02372      
288700  0.21928    0.03853    0.07463    0.00317      0.09760      0.05350      0.00293      0.10960      0.02372      
288800  0.21927    0.03852    0.07463    0.00317      0.09759      0.05350      0.00293      0.10960      0.02373      
288900  0.21926    0.03852    0.07463    0.00317      0.09759      0.05350      0.00293      0.10960      0.02372      
289000  0.21926    0.03852    0.07463    0.00317      0.09759      0.05350      0.00293      0.10960      0.02372      
289100  0.21925    0.03852    0.07462    0.00317      0.09759      0.05350      0.00293      0.10959      0.02372      
289200  0.21924    0.03852    0.07462    0.00317      0.09759      0.05349      0.00293      0.10959      0.02372      
289300  0.21924    0.03852    0.07462    0.00317      0.09758      0.05350      0.00292      0.10959      0.02373      
289400  0.21923    0.03852    0.07461    0.00317      0.09758      0.05349      0.00293      0.10959      0.02372      
289500  0.21922    0.03851    0.07461    0.00317      0.09758      0.05349      0.00293      0.10958      0.02372      
289600  0.21922    0.03851    0.07461    0.00317      0.09758      0.05349      0.00293      0.10959      0.02372      
289700  0.21921    0.03851    0.07461    0.00317      0.09758      0.05349      0.00293      0.10958      0.02372      
289800  0.21920    0.03851    0.07460    0.00317      0.09757      0.05348      0.00293      0.10958      0.02371      
289900  0.21920    0.03851    0.07460    0.00317      0.09757      0.05348      0.00293      0.10957      0.02372      
290000  0.21919    0.03851    0.07460    0.00317      0.09757      0.05348      0.00293      0.10957      0.02372      
290100  0.21918    0.03850    0.07459    0.00317      0.09757      0.05348      0.00293      0.10957      0.02372      
290200  0.21918    0.03850    0.07459    0.00317      0.09757      0.05347      0.00293      0.10957      0.02372      
290300  0.21917    0.03850    0.07459    0.00317      0.09756      0.05347      0.00293      0.10957      0.02371      
290400  0.21916    0.03850    0.07459    0.00317      0.09756      0.05347      0.00293      0.10956      0.02372      
290500  0.21916    0.03850    0.07458    0.00317      0.09756      0.05346      0.00293      0.10956      0.02372      
290600  0.21915    0.03850    0.07458    0.00317      0.09756      0.05346      0.00293      0.10956      0.02371      
290700  0.21914    0.03850    0.07458    0.00317      0.09756      0.05346      0.00293      0.10956      0.02372      
290800  0.21914    0.03849    0.07457    0.00317      0.09755      0.05346      0.00293      0.10956      0.02371      
290900  0.21913    0.03849    0.07457    0.00317      0.09755      0.05346      0.00293      0.10955      0.02372      
291000  0.21912    0.03849    0.07457    0.00317      0.09755      0.05346      0.00292      0.10955      0.02371      
291100  0.21912    0.03849    0.07457    0.00317      0.09755      0.05346      0.00293      0.10954      0.02371      
291200  0.21911    0.03849    0.07456    0.00317      0.09755      0.05345      0.00293      0.10954      0.02371      
291300  0.21911    0.03849    0.07456    0.00317      0.09755      0.05345      0.00293      0.10954      0.02371      
291400  0.21910    0.03848    0.07456    0.00317      0.09755      0.05345      0.00293      0.10954      0.02370      
291500  0.21909    0.03848    0.07456    0.00317      0.09754      0.05345      0.00292      0.10953      0.02371      
291600  0.21909    0.03848    0.07455    0.00317      0.09754      0.05344      0.00292      0.10953      0.02371      
291700  0.21908    0.03848    0.07455    0.00317      0.09754      0.05344      0.00293      0.10953      0.02371      
291800  0.21907    0.03848    0.07455    0.00317      0.09754      0.05344      0.00292      0.10953      0.02371      
291900  0.21907    0.03848    0.07454    0.00317      0.09754      0.05344      0.00292      0.10953      0.02371      
292000  0.21906    0.03847    0.07454    0.00317      0.09754      0.05344      0.00292      0.10952      0.02371      
292100  0.21906    0.03847    0.07454    0.00317      0.09753      0.05344      0.00292      0.10952      0.02371      
292200  0.21905    0.03847    0.07454    0.00317      0.09753      0.05343      0.00292      0.10951      0.02371      
292300  0.21904    0.03847    0.07453    0.00317      0.09753      0.05343      0.00292      0.10952      0.02370      
292400  0.21904    0.03847    0.07453    0.00317      0.09753      0.05343      0.00292      0.10952      0.02371      
292500  0.21903    0.03847    0.07453    0.00317      0.09753      0.05342      0.00292      0.10952      0.02370      
292600  0.21902    0.03847    0.07452    0.00317      0.09752      0.05342      0.00292      0.10952      0.02370      
292700  0.21902    0.03846    0.07452    0.00317      0.09752      0.05342      0.00292      0.10951      0.02370      
292800  0.21901    0.03846    0.07452    0.00317      0.09752      0.05341      0.00293      0.10951      0.02370      
292900  0.21900    0.03846    0.07452    0.00317      0.09752      0.05341      0.00292      0.10951      0.02369      
293000  0.21900    0.03846    0.07451    0.00316      0.09752      0.05341      0.00292      0.10951      0.02369      
293100  0.21899    0.03846    0.07451    0.00317      0.09752      0.05341      0.00292      0.10951      0.02368      
293200  0.21898    0.03846    0.07451    0.00316      0.09751      0.05341      0.00292      0.10950      0.02369      
293300  0.21898    0.03845    0.07450    0.00316      0.09751      0.05340      0.00292      0.10950      0.02368      
293400  0.21897    0.03845    0.07450    0.00316      0.09751      0.05340      0.00292      0.10951      0.02368      
293500  0.21896    0.03845    0.07450    0.00316      0.09751      0.05341      0.00291      0.10951      0.02367      
293600  0.21896    0.03845    0.07450    0.00316      0.09751      0.05340      0.00292      0.10950      0.02367      
293700  0.21895    0.03845    0.07449    0.00316      0.09751      0.05340      0.00292      0.10950      0.02367      
293800  0.21894    0.03845    0.07449    0.00316      0.09750      0.05340      0.00292      0.10951      0.02368      
293900  0.21894    0.03845    0.07449    0.00316      0.09750      0.05340      0.00292      0.10949      0.02368      
294000  0.21893    0.03844    0.07449    0.00316      0.09750      0.05340      0.00292      0.10950      0.02368      
294100  0.21893    0.03844    0.07448    0.00316      0.09750      0.05339      0.00292      0.10949      0.02367      
294200  0.21892    0.03844    0.07448    0.00316      0.09750      0.05339      0.00292      0.10949      0.02367      
294300  0.21891    0.03844    0.07448    0.00316      0.09749      0.05339      0.00292      0.10949      0.02367      
294400  0.21891    0.03844    0.07447    0.00316      0.09749      0.05339      0.00292      0.10949      0.02368      
294500  0.21890    0.03844    0.07447    0.00316      0.09749      0.05339      0.00292      0.10949      0.02368      
294600  0.21889    0.03844    0.07447    0.00316      0.09749      0.05339      0.00292      0.10948      0.02369      
294700  0.21889    0.03843    0.07447    0.00316      0.09749      0.05338      0.00292      0.10949      0.02368      
294800  0.21888    0.03843    0.07446    0.00316      0.09748      0.05338      0.00292      0.10949      0.02368      
294900  0.21888    0.03843    0.07446    0.00316      0.09748      0.05338      0.00292      0.10950      0.02368      
295000  0.21887    0.03843    0.07446    0.00316      0.09748      0.05338      0.00292      0.10949      0.02368      
295100  0.21886    0.03843    0.07446    0.00316      0.09748      0.05338      0.00292      0.10948      0.02368      
295200  0.21886    0.03843    0.07445    0.00316      0.09748      0.05337      0.00292      0.10949      0.02368      
295300  0.21885    0.03843    0.07445    0.00316      0.09748      0.05337      0.00292      0.10948      0.02368      
295400  0.21884    0.03842    0.07445    0.00316      0.09747      0.05337      0.00292      0.10949      0.02367      
295500  0.21884    0.03842    0.07445    0.00316      0.09747      0.05337      0.00291      0.10948      0.02367      
295600  0.21883    0.03842    0.07444    0.00316      0.09747      0.05337      0.00292      0.10948      0.02368      
295700  0.21883    0.03842    0.07444    0.00316      0.09747      0.05337      0.00292      0.10949      0.02367      
295800  0.21882    0.03842    0.07444    0.00316      0.09747      0.05337      0.00292      0.10948      0.02367      
295900  0.21881    0.03842    0.07444    0.00316      0.09747      0.05337      0.00292      0.10948      0.02366      
296000  0.21881    0.03842    0.07443    0.00316      0.09746      0.05337      0.00292      0.10947      0.02366      
296100  0.21880    0.03841    0.07443    0.00316      0.09746      0.05337      0.00292      0.10948      0.02366      
296200  0.21880    0.03841    0.07443    0.00316      0.09746      0.05336      0.00292      0.10948      0.02366      
296300  0.21879    0.03841    0.07443    0.00316      0.09746      0.05337      0.00292      0.10948      0.02366      
296400  0.21878    0.03841    0.07442    0.00316      0.09746      0.05337      0.00291      0.10948      0.02366      
296500  0.21878    0.03841    0.07442    0.00316      0.09745      0.05337      0.00292      0.10948      0.02367      
296600  0.21877    0.03841    0.07442    0.00316      0.09745      0.05336      0.00291      0.10948      0.02366      
296700  0.21877    0.03841    0.07441    0.00316      0.09745      0.05336      0.00291      0.10947      0.02366      
296800  0.21876    0.03840    0.07441    0.00316      0.09745      0.05336      0.00291      0.10947      0.02366      
296900  0.21875    0.03840    0.07441    0.00316      0.09745      0.05336      0.00291      0.10947      0.02365      
297000  0.21875    0.03840    0.07441    0.00316      0.09745      0.05336      0.00292      0.10946      0.02366      
297100  0.21874    0.03840    0.07440    0.00316      0.09744      0.05335      0.00291      0.10947      0.02365      
297200  0.21873    0.03840    0.07440    0.00316      0.09744      0.05336      0.00291      0.10946      0.02365      
297300  0.21873    0.03840    0.07440    0.00316      0.09744      0.05336      0.00291      0.10946      0.02365      
297400  0.21872    0.03840    0.07440    0.00315      0.09744      0.05335      0.00291      0.10946      0.02365      
297500  0.21872    0.03840    0.07439    0.00316      0.09744      0.05335      0.00291      0.10946      0.02366      
297600  0.21871    0.03839    0.07439    0.00315      0.09744      0.05335      0.00291      0.10946      0.02365      
297700  0.21870    0.03839    0.07439    0.00316      0.09743      0.05335      0.00291      0.10946      0.02365      
297800  0.21870    0.03839    0.07439    0.00316      0.09743      0.05335      0.00291      0.10945      0.02365      
297900  0.21869    0.03839    0.07438    0.00316      0.09743      0.05335      0.00291      0.10946      0.02365      
298000  0.21869    0.03839    0.07438    0.00316      0.09743      0.05334      0.00291      0.10946      0.02364      
298100  0.21868    0.03839    0.07438    0.00315      0.09743      0.05334      0.00291      0.10946      0.02364      
298200  0.21868    0.03839    0.07438    0.00315      0.09743      0.05333      0.00291      0.10945      0.02363      
298300  0.21867    0.03838    0.07437    0.00315      0.09742      0.05334      0.00291      0.10945      0.02363      
298400  0.21866    0.03838    0.07437    0.00315      0.09742      0.05334      0.00291      0.10945      0.02364      
298500  0.21866    0.03838    0.07437    0.00315      0.09742      0.05334      0.00291      0.10945      0.02364      
298600  0.21865    0.03838    0.07437    0.00315      0.09742      0.05334      0.00291      0.10944      0.02364      
298700  0.21865    0.03838    0.07436    0.00315      0.09742      0.05334      0.00291      0.10944      0.02364      
298800  0.21864    0.03838    0.07436    0.00315      0.09742      0.05333      0.00291      0.10943      0.02363      
298900  0.21864    0.03838    0.07436    0.00315      0.09742      0.05333      0.00291      0.10944      0.02363      
299000  0.21863    0.03837    0.07436    0.00315      0.09741      0.05333      0.00291      0.10942      0.02363      
299100  0.21863    0.03837    0.07436    0.00315      0.09741      0.05333      0.00291      0.10942      0.02364      
299200  0.21862    0.03837    0.07435    0.00315      0.09741      0.05333      0.00291      0.10943      0.02364      
299300  0.21862    0.03837    0.07435    0.00315      0.09741      0.05333      0.00291      0.10943      0.02364      
299400  0.21861    0.03837    0.07435    0.00315      0.09741      0.05333      0.00291      0.10943      0.02364      
299500  0.21861    0.03837    0.07435    0.00315      0.09741      0.05333      0.00291      0.10942      0.02364      
299600  0.21860    0.03837    0.07434    0.00315      0.09740      0.05333      0.00291      0.10942      0.02364      
299700  0.21860    0.03836    0.07434    0.00315      0.09740      0.05333      0.00291      0.10942      0.02363      
299800  0.21859    0.03836    0.07434    0.00315      0.09740      0.05333      0.00291      0.10942      0.02364      
299900  0.21858    0.03836    0.07434    0.00315      0.09740      0.05333      0.00291      0.10942      0.02364      
300000  0.21858    0.03836    0.07434    0.00315      0.09740      0.05333      0.00291      0.10942      0.02363      

---------------------------------------------------------------
Time used for training = 10527.046875 s.
---------------------------------------------------------------


---------------------------------------------------------------
Finished running nep.
---------------------------------------------------------------

