63
Lattice="8.72939968 0.0 0.0 -4.36470085 7.5598813 0.0 0.0 0.0 21.98290062" Properties=species:S:1:pos:R:3:force:R:3 Config_type=train-45 Weight=1.0 Energy=-552.154833 Virial="-5.48333 -3.13919 -1.37872 -3.13919 -6.22341 -3.70387 -1.37872 -3.70387 -0.97838" pbc="T T T"
Si      -0.01375000       1.64842000      13.93009000      -0.15237100       0.08489700       1.46567800
Si      -1.49455000       4.19192000      13.98163000       0.79728100      -0.39137100       0.74487900
Si      -2.91793000       6.72745000      13.99586000       0.37211800       0.57614900       0.19734800
Si       2.89430000       1.80208000      14.00908000       1.22894300      -1.46717100       0.36692600
Si       1.36935000       4.23294000      14.03717000       1.38859100      -0.10481200      -0.27267100
Si      -0.05974000       6.74574000      14.05940000       1.15645100       0.96291600      -0.99294600
Si       5.82305000       1.64601000      13.95331000       0.00534600       1.35132000       1.19330500
Si       4.35908000       4.18810000      13.97881000       0.48427800       0.78821700       1.60638100
Si       2.86934000       6.72931000      14.04547000       0.94511000      -0.75648900      -0.82758100
Si       0.02644000       1.65863000       7.98525000      -0.20186800       0.47084100      -0.54640700
Si      -1.43651000       4.21418000       7.98127000      -0.11161700       0.72873400       0.65055500
Si      -2.88197000       6.76207000       7.86125000      -1.16567500      -2.32419900       1.81728200
Si       2.90944000       1.59686000       7.96550000      -0.09194700       1.67109900       1.04005700
Si       1.45152000       4.22047000       8.01023000       1.44007000      -1.11376600       0.35748700
Si       0.00833000       6.68129000       7.99083000       0.55635200       0.39517500       0.78696100
Si       5.84683000       1.70890000       7.96447000      -0.09872400      -1.10155700       0.27549700
Si       4.37397000       4.14403000       7.91101000      -0.25332600       1.11155600       1.25795000
Si       2.91313000       6.71932000       7.99140000       0.12476200      -0.50242300      -1.00918000
N       -0.05255000       1.68153000      12.21310000       0.94769900      -0.02279100       0.09953200
N       -1.46400000       4.20497000      12.24460000       0.19354200      -0.05410300      -0.17953300
N       -2.90304000       6.72103000      12.25132000      -0.33819400       0.24238900      -0.17781500
N        2.90507000       1.77199000      12.26350000       0.26651200      -0.78688900      -0.33831000
N        1.46553000       4.21836000      12.26499000      -0.60591800      -0.44606200       0.15148800
N        0.04432000       6.73010000      12.23852000      -0.76245600      -0.44553900       1.53972500
N        5.80655000       1.64465000      12.24287000       0.11608000       0.48076500      -1.07522900
N        4.42656000       4.19634000      12.28219000      -0.66203200      -0.04108200      -1.89474000
N        2.89639000       6.70850000      12.24485000       0.23548900       0.02651000       0.34733500
N        0.02013000       1.70675000       9.72214000      -0.30130300      -0.49559700       0.26255700
N       -1.45554000       4.24861000       9.74689000       0.05258000      -0.49337300      -0.37017000
N       -2.84743000       6.73599000       9.68566000      -0.81985100       0.19613400       0.20671800
N        2.86487000       1.59334000       9.77285000       0.75560600       0.87652100      -1.23430500
N        1.40306000       4.23704000       9.76355000       0.86922400      -0.70953400      -0.27155500
N       -0.03074000       6.71468000       9.78766000       0.27582500      -0.14642500      -1.19584800
N        5.81468000       1.61191000       9.72611000       0.26115000       1.03190200      -0.04526000
N        4.38100000       4.21395000       9.74220000      -0.17624500      -0.38239900      -1.03134800
N        2.90693000       6.70579000       9.70182000       0.20239000       0.04780600       1.51055900
N        7.27384000       2.47248000      14.51638000       0.15406600       0.96254800      -0.53846000
N       -2.87532000       5.08193000      14.48133000      -1.16109000      -0.84314800       0.49137600
N        4.36048000       7.52587000      14.50984000      -0.21921100       0.79700800      -0.14122200
N        1.41573000       2.52315000      14.48655000      -0.60781700       0.74135400       0.38158400
N       -0.04462000       5.09826000      14.56779000      -0.38681400      -1.06136700      -0.17817100
N        2.88710000       0.08143000      14.49915000      -0.21796000      -0.15976600       0.07454700
N        4.44138000       2.54691000      14.60946000      -1.43841200      -0.18204100      -1.04491800
N        2.89168000       5.03699000      14.52605000      -0.29586500      -0.23295800      -0.02345600
N        5.84052000       0.04107000      14.53525000      -1.43284000      -1.27862900       0.27106300
N       -1.41690000       2.59367000       7.48802000      -0.34698300      -2.22289800      -0.41039600
N       -2.89332000       5.02339000       7.44767000      -0.07893100       0.25460800      -0.28627200
N        4.38148000       7.52293000       7.34573000      -0.58883600       1.24691900       0.80427700
N        1.47399000       2.53702000       7.51163000       0.20814900      -0.89839200      -0.36278100
N        0.05245000       5.00634000       7.50183000      -1.50450100       1.07091600      -0.69340700
N       -1.43097000       7.51072000       7.44232000       0.70963600       0.49459900      -0.81314300
N        4.35204000       2.46172000       7.43506000       0.25575200       0.29796300       0.07713900
N        2.91134000       5.02016000       7.47679000       0.16455900       0.13398200      -0.16398800
N        1.43864000       7.54108000       7.45931000       0.58341500       0.49439900       0.01571400
Mo      -1.46498000       7.53873000      11.04580000       0.50394100       1.00760100      -0.92885100
Mo       1.45454000       2.51406000      10.98948000      -0.31551100       0.65007600       0.23952700
Mo      -0.00752000       5.02358000      10.99895000       0.20539900       0.97236900       0.73178100
Mo       1.45299000       7.53078000      11.00166000       0.36217300       0.47621600      -0.63849300
Mo       4.36752000       2.53175000      10.96244000       0.20473300      -0.72686100       0.83444800
Mo       2.90136000       5.00254000      11.01916000       0.69842100       1.41347100      -0.66828400
Mo       0.01087000       0.02141000      10.98753000      -0.33389100      -1.11569100      -0.87384100
Mo      -1.42851000       2.53916000      10.99348000      -1.70533900      -0.64694100      -0.83222500
Mo      -2.89820000       5.08128000      10.97512000      -0.35011000      -0.90268400       0.26113500
7
Lattice="2.900959867 -0.0 0.0 -1.486287147 2.468575182 -0.0 -0.254299416 -0.154346093 21.408916342" Properties=species:S:1:pos:R:3:force:R:3 Config_type=turn-28 Weight=1.0 Energy=-32.819815 Virial="35.36175 56.06868 11.07807 56.06868 121.12389 18.71411 11.07807 18.71411 3.62376" pbc="T T T"
Si      -0.21836000       0.05532000      13.99776000      24.43052900      48.76680800     -10.40955300
Si      -0.15689000       0.12014000       7.47180000      33.65490400      67.40409400      28.40731400
N        0.66590000       1.46903000      14.08545000     -24.42291200     -49.06662800       8.41353000
N       -0.09846000       0.10731000      11.90682000       2.49483100      -1.84187400       3.86298400
N        0.79045000       1.63663000       7.12799000     -34.08181100     -68.86409100     -25.85299400
N        1.28463000       2.34554000       9.50333000       2.35643300       1.84440400      -3.63077000
Mo       1.48823000       0.74968000      10.72283000      -4.43197300       1.75728600      -0.79051200
7
Lattice="2.925819872 -0.0 0.0 -1.514593042 2.488562455 0.0 -0.017138465 -0.495209224 20.740991805" Properties=species:S:1:pos:R:3:force:R:3 Config_type=turn-16 Weight=1.0 Energy=-30.532269 Virial="41.93037 42.72479 42.02746 42.72479 43.58927 45.02063 42.02746 45.02063 81.84321" pbc="T T T"
Si       1.33250000       2.03806000      13.41877000      15.58496000      12.58493700      -5.62630100
Si       1.17131000       2.17327000       7.60909000      55.00515900      56.32246700      62.29471100
N        0.36935000       1.15019000      13.81245000     -15.90215600     -12.29009300       7.23307500
N        2.91110000      -0.27444000      11.72841000       0.46456600      -1.13805700      -3.40520700
N        0.66050000       1.65809000       6.86853000     -58.36760100     -59.22673000     -78.41983800
N        0.06859000      -0.04246000       8.97609000       2.80157800       1.02665100      16.95561400
Mo       1.43498000       0.47567000      10.38899000       0.41349400       2.72082500       0.96794600
7
Lattice="2.832956599 -0.0 -0.0 -1.436241039 2.531110817 -0.0 -0.580517369 0.510857821 20.517377174" Properties=species:S:1:pos:R:3:force:R:3 Config_type=turn-79 Weight=1.0 Energy=-53.520335 Virial="44.8457 -3.54053 11.00175 -3.54053 9.90394 -2.75847 11.00175 -2.75847 22.72915" pbc="T T T"
Si      -0.13989000       0.60450000      13.19374000       0.20102300      -4.04248500      -6.57374000
Si       2.41406000       0.27678000       7.53826000      18.12739300      -3.23853800       3.53554700
N        1.28045000       0.81167000      13.64360000      -0.75085100       3.34639900       5.57440100
N       -1.70893000       2.73204000      11.40324000       0.37839800       1.08326000       2.67520000
N        1.24237000       0.47363000       6.83715000     -18.26647000       3.24012200      -7.11821000
N        1.09141000       2.69902000       9.19059000       0.64324600       1.25179800      -5.82141600
Mo       1.13099000       1.07666000      10.16733000      -0.33273900      -1.64055700       7.72821800
7
Lattice="2.990540279 -0.0 -0.0 -1.492789738 2.540403418 0.0 0.514117385 -0.187858018 21.162425019" Properties=species:S:1:pos:R:3:force:R:3 Config_type=turn-33 Weight=1.0 Energy=-53.993185 Virial="7.76872 15.86747 1.02051 15.86747 30.82654 5.49115 1.02051 5.49115 -0.6571" pbc="T T T"
Si       0.47912000      -0.03635000      13.60019000      -0.75072300      -1.37374900      -4.12430500
Si       0.21835000       0.06458000       7.36689000       4.22316500      13.51731200       8.11702000
N        1.20077000       1.23310000      14.01817000       0.08756700       0.68335300       5.00473600
N        1.74993000       2.39181000      11.89941000      -0.24795500       0.30928900      -4.23228700
N        1.17142000       1.34296000       7.14067000      -4.61115900     -14.00429600      -6.56927900
N        0.16854000       0.07554000       9.28583000      -1.03676300      -1.94656900      -3.50371400
Mo       1.55977000       0.69261000      10.44255000       2.33586700       2.81466000       5.30782900
7
Lattice="2.840283258 -0.0 0.0 -1.393135772 2.467271822 0.0 0.035062736 -0.339680073 21.603172696" Properties=species:S:1:pos:R:3:force:R:3 Config_type=turn-56 Weight=1.0 Energy=-55.011012 Virial="4.46246 0.22452 2.98051 0.22452 14.9157 -0.08015 2.98051 -0.08015 35.44999" pbc="T T T"
Si       1.38638000       2.15427000      13.60857000       0.00686200       6.87431200       6.73133600
Si       2.75053000      -0.07286000       8.05990000      -1.39269200       8.28968100     -17.19920000
N        1.34796000       0.83331000      14.45113000      -0.08844700      -7.17203200      -1.59108100
N       -0.03502000       0.03660000      12.04184000      -1.35234200      -1.66618800      -3.83709600
N        1.42122000       1.05976000       7.30317000       0.03211900      -8.71490200      -0.15461100
N        0.05520000      -0.07323000       9.48559000      -1.05372300      -0.93500100      15.53592800
Mo       1.27957000       0.66077000      10.76488000       3.84822200       3.32412900       0.51472300
7
Lattice="2.9189088 -0.022080616 -0.950926403 -1.398748383 2.631528572 -0.887556402 0.0256703 0.030474739 21.138281123" Properties=species:S:1:pos:R:3:force:R:3 Config_type=train-18 Weight=1.0 Energy=-51.878977 Virial="4.84005 4.30002 8.57932 4.30002 6.58599 14.03605 8.57932 14.03605 4.66629" pbc="T T T"
Si       0.05700000       1.76665000      12.71811000       0.66595900       0.16772400       1.78903000
Si       0.04958000       1.75783000       6.60282000       0.50650300      -0.70593500      -2.12834700
N        1.49688000       0.88284000      13.21440000      -0.12637300       2.94510000       0.85578700
N        0.05484000       1.76407000      10.93397000      -1.41414800       1.04019300      -1.21515300
N        1.48820000       0.87253000       6.06427000      -3.15127300      -1.31294800      -0.92785700
N        0.05174000       1.76040000       8.38695000      -2.28196800       0.27511000       1.58194000
Mo       0.01284000       0.01524000      10.56914000       5.80130100      -2.40924500       0.04460000
7
Lattice="2.833799421 -0.0 0.0 -1.49121693 2.50116243 -0.0 0.614645956 0.614563624 20.808096521" Properties=species:S:1:pos:R:3:force:R:3 Config_type=turn-21 Weight=1.0 Energy=-35.485939 Virial="60.49104 59.19607 -14.71141 59.19607 62.22715 -16.23302 -14.71141 -16.23302 42.14133" pbc="T T T"
Si       3.11972000       0.44459000      13.33686000      38.82221000      41.82591800     -19.66613600
Si       0.29861000       0.26500000       7.43185000      37.75925700      37.50534700      10.79727800
N        0.93584000       2.19973000      13.90164000     -39.71903000     -42.90388200      29.02621200
N        3.03431000       0.38185000      11.80872000       1.42361400      -2.00288600      -7.85290000
N        0.81870000       1.92705000       7.22843000     -39.10236100     -38.99607800     -14.64808300
N        2.92660000       0.35078000       9.08429000       2.63117500      -0.90537300       3.61993200
Mo       1.70339000       0.75999000      10.47788000      -1.81486600       5.47695300      -1.27630400
7
Lattice="2.916336639 0.0 -0.0 -1.390126436 2.590423686 0.0 -0.259700403 -0.075243574 20.831937651" Properties=species:S:1:pos:R:3:force:R:3 Config_type=turn-111 Weight=1.0 Energy=-51.472187 Virial="47.82446 14.62441 -6.34378 14.62441 8.45981 -0.69733 -6.34378 -0.69733 8.83946" pbc="T T T"
Si       1.31510000       2.52761000      13.30142000      23.93242000      10.13133100      -9.34254000
Si       1.46308000       2.47673000       7.41617000       5.69970000       4.41013300       4.29288200
N        0.17109000       2.04269000      13.78164000     -24.56434000     -10.49735300       8.68434400
N        2.72546000      -0.02610000      11.51214000       1.28638300      -0.48406200       0.83475800
N        0.09402000       1.97177000       6.97915000      -5.80904500      -4.65067600      -2.53196100
N       -0.00386000       0.02099000       9.43863000      -4.05386900      -4.92602800     -13.36568800
Mo       1.36203000       0.73605000      10.14416000       3.50875100       6.01665600      11.42820500
7
Lattice="2.913674552 -0.0 0.0 -1.387323022 2.582500155 0.0 -0.2464716 0.093917608 21.751969355" Properties=species:S:1:pos:R:3:force:R:3 Config_type=turn-47 Weight=1.0 Energy=-44.976014 Virial="-2.3005 5.73533 -5.5447 5.73533 56.09756 -39.53563 -5.5447 -39.53563 12.41059" pbc="T T T"
Si       1.32476000       2.44501000      13.84133000       5.22114400      64.21371400     -26.63700000
Si      -1.41846000       2.60209000       7.63986000      -3.60444500      -1.01702700       2.21787700
N        1.23928000       1.44363000      14.37654000      -5.41864900     -64.90369800      30.95195000
N       -0.05632000       0.27353000      12.28012000      -0.98731200      -0.05233800      -6.46771700
N        1.00032000       1.08880000       7.01799000       3.39445200       0.73769500      -0.00566500
N        1.44585000       2.46875000       9.49580000      -0.53092000       2.25097900       0.39256900
Mo       1.28665000       0.99635000      10.89146000       1.92573000      -1.22932500      -0.45201300
7
Lattice="2.973959896 0.0 -0.0 -1.437980244 2.508285958 0.0 -0.426276645 -0.230758695 20.952167285" Properties=species:S:1:pos:R:3:force:R:3 Config_type=train-4 Weight=1.0 Energy=-50.144456 Virial="0.82597 4.1323 2.10606 4.1323 4.0088 -4.21263 2.10606 -4.21263 58.29164" pbc="T T T"
Si      -0.11955000       1.43114000      13.42983000      -8.51000000      -4.73281600      -0.22126700
Si      -0.13159000       1.64029000       7.69397000       0.22245900       8.64558600     -45.38075900
N        1.08107000       2.18303000      13.95960000       8.88455800       5.10051100       2.06538000
N       -0.02611000       1.47662000      11.72755000      -3.75656700      -0.03182800       1.32052600
N       -0.18337000       0.03180000       7.05124000       0.06409600      -1.65364900      -0.12292700
N       -0.14876000       1.41818000       8.91368000      -0.96056900      -6.71590700      48.56946400
Mo       2.56854000      -0.11507000      10.56130000       4.05602200      -0.61189500      -6.23041700
7
Lattice="2.848508907 0.0 0.0 -1.393988071 2.484767969 -0.0 0.586886625 -0.088774802 20.524716733" Properties=species:S:1:pos:R:3:force:R:3 Config_type=turn-40 Weight=1.0 Energy=-36.149386 Virial="31.88378 33.52328 -0.84143 33.52328 61.9108 -19.46174 -0.84143 -19.46174 69.61911" pbc="T T T"
Si       1.85716000       2.26810000      13.31439000      32.04835700      58.01510800     -21.39695700
Si       0.20934000       0.22397000       7.75475000      -7.12239400       3.42757600     -47.35868300
N        1.32245000       1.30281000      13.62384000     -31.97413900     -57.49415800      19.89003000
N        0.52441000       0.11454000      11.48276000      -3.84916800      -2.07360000       4.65222700
N        1.35029000       1.18129000       6.81628000       1.29881000       0.00890100       3.63990600
N        0.39363000       0.10220000       8.98819000      -1.14810500      -6.66431600      33.51903200
Mo       1.39245000       0.81024000      10.14014000      10.74663900       4.78048900       7.05444500
7
Lattice="2.952773207 -0.0 0.0 -1.487374295 2.593058324 -0.0 -0.338552236 0.433333107 21.165429594" Properties=species:S:1:pos:R:3:force:R:3 Config_type=turn-48 Weight=1.0 Energy=-54.40345 Virial="-4.95237 6.92071 -3.5742 6.92071 19.97216 -3.57053 -3.5742 -3.57053 12.14285" pbc="T T T"
Si       2.70336000       0.33338000      13.57604000       2.39121100      15.85269500      -0.88449900
Si       1.32396000       2.68474000       7.47212000       0.04884400       9.28541900      -0.89574100
N        0.94598000       1.60879000      14.02102000      -2.76066800     -16.64392900       5.87034300
N        1.32623000       2.74006000      11.97281000       1.04379700       2.45027600      -5.94180600
N        1.08934000       1.24490000       7.15139000       0.40478400      -9.56916300      -4.71617000
N        2.60026000       0.23375000       9.04567000       0.67362000       0.65876200      10.23217800
Mo       1.39982000       1.23317000      10.65303000      -1.80158700      -2.03406000      -3.66430500
7
Lattice="2.829680978 -0.0 0.0 -1.42816472 2.502700193 0.0 0.001254969 0.49229181 21.639810487" Properties=species:S:1:pos:R:3:force:R:3 Config_type=train-20 Weight=1.0 Energy=-57.274683 Virial="14.8381 -0.85457 6.89471 -0.85457 13.20229 -4.35827 6.89471 -4.35827 6.64787" pbc="T T T"
Si       0.09627000       1.99151000      13.84974000      -6.10276500      -4.06534000      -1.05965800
Si      -0.24556000       1.56762000       7.87479000       6.41914400      -2.32497900       2.52602400
N        0.00578000       1.88493000      12.04638000       0.88165900       3.26705300       5.71309200
N        0.05845000       1.77962000       9.76840000      -0.37920700       5.07488100      -7.68740700
N        1.35665000       2.64556000      14.48197000       5.98990000       3.98616300       0.20962800
N       -1.26827000       2.51452000       7.19916000      -5.79023000       3.12403500      -0.40819100
Mo       0.07437000       0.41530000      10.91394000      -1.01850100      -9.06181200       0.70651300
7
Lattice="2.89491376 0.0 -0.0 -1.424775497 2.551850413 -0.0 0.249809666 0.639482619 21.576363357" Properties=species:S:1:pos:R:3:force:R:3 Config_type=train-3 Weight=1.0 Energy=-58.325062 Virial="5.38776 0.31605 -0.56898 0.31605 18.12375 -0.4706 -0.56898 -0.4706 3.30346" pbc="T T T"
Si       0.09682000       2.21296000      13.74754000       1.32819300      -6.31557800      -5.14320300
Si       0.05797000       1.99274000       7.67478000       0.71853300      -2.84679600       5.88329000
N        0.16923000       1.99174000      11.89819000       0.54893000       4.17623600       5.49136000
N        0.17686000       1.93268000       9.56217000       0.02739100       3.77494200      -3.61159300
N        1.62828000       1.19672000      13.99348000      -1.17677900       5.64669100       3.88332400
N        1.52283000       1.05532000       7.51920000      -0.28326500       2.68441500      -4.27491600
Mo       0.20066000       0.51925000      10.78406000      -1.16300400      -7.11991000      -2.22826100
7
Lattice="2.839861286 -0.0 -0.0 -1.381217997 2.58166758 -0.0 0.306715634 -0.053912458 21.441148536" Properties=species:S:1:pos:R:3:force:R:3 Config_type=turn-39 Weight=1.0 Energy=-52.384431 Virial="11.12113 11.93457 -0.20033 11.93457 39.07377 -4.29702 -0.20033 -4.29702 4.16953" pbc="T T T"
Si       2.94807000       0.01850000      13.75472000       2.94040600      20.13608100      -4.28059800
Si       2.91601000      -0.00737000       7.53082000       1.27033200      11.10308700       6.76908800
N        1.30567000       1.30517000      14.13930000      -3.13818500     -21.01760000       7.18387300
N        2.86262000      -0.00950000      12.10613000       0.25911700       0.34069400      -7.91504800
N        1.08092000       1.23489000       7.30531000      -1.44169000     -11.36074600      -5.52505700
N        2.91158000       0.02502000       9.48269000      -0.39599900      -2.73001500      -7.20793000
Mo       1.46903000       0.74654000      10.49449000       0.50601700       3.52849900      10.97567100
7
Lattice="2.909013916 0.0 0.0 -1.521017682 2.490060736 -0.0 -0.418818224 0.593822373 21.644928828" Properties=species:S:1:pos:R:3:force:R:3 Config_type=turn-81 Weight=1.0 Energy=-49.223547 Virial="66.87916 -6.36384 4.87472 -6.36384 13.85019 1.55367 4.87472 1.55367 2.47866" pbc="T T T"
Si      -0.18169000       0.50586000      14.05720000       1.99548200      -2.20877400      -6.85398000
Si      -0.18830000       0.32034000       7.50957000      21.76488300      -4.90089000       8.95956500
N        1.28948000       0.61438000      14.38499000      -2.13538400       1.79424300       5.21444700
N        1.08885000       2.62734000      11.73060000       1.81239400       1.60983000      10.37292100
N        1.40880000       0.51690000       7.37190000     -21.62512300       5.03204800      -6.54724400
N       -0.06537000       0.36107000       9.57423000      -1.50573200      -1.57167400      -3.32220300
Mo       1.26006000       1.03316000      10.85584000      -0.30651900       0.24521700      -7.82350600
7
Lattice="2.924112835 -0.0 0.0 -1.536060203 2.560472001 0.0 0.286883596 -0.1543491 21.460704934" Properties=species:S:1:pos:R:3:force:R:3 Config_type=turn-92 Weight=1.0 Energy=-44.643406 Virial="83.21659 4.78491 20.02508 4.78491 0.86809 0.83635 20.02508 0.83635 9.74697" pbc="T T T"
Si      -1.21524000       2.39595000      13.81281000      18.32719700       0.67185100      -8.52941100
Si       1.45117000       2.46504000       7.62350000      58.70470200       2.28495000      27.81380100
N        0.38780000       2.37943000      14.12677000     -19.13708600      -0.68677600       8.03485100
N        0.29041000      -0.04064000      12.00879000      -0.95410700      -0.45837000       1.87779800
N        0.40110000       2.42853000       7.12811000     -59.44998400      -2.21670000     -25.34681500
N        3.00671000      -0.01312000       9.53281000       1.73255100      -0.59533500      -1.49263200
Mo       1.61210000       0.77796000      10.81262000       0.77672700       1.00037900      -2.35759100
7
Lattice="2.93305135 -0.0 -0.0 -1.434167931 2.495667941 0.0 0.282886255 0.28273907 21.494155515" Properties=species:S:1:pos:R:3:force:R:3 Config_type=turn-15 Weight=1.0 Energy=-57.008928 Virial="1.44112 1.57527 1.15117 1.57527 7.07509 3.20627 1.15117 3.20627 -3.34425" pbc="T T T"
Si       0.38620000       0.34722000      13.75817000       0.37336600      -5.50703500      -0.20291500
Si       0.29825000       0.26618000       7.85962000       0.65347400      -0.12965000      -6.44268200
N        0.57858000       1.80965000      14.34648000      -1.41149500       4.73325600       0.53380500
N        1.43950000       2.57655000      12.08403000       1.41313000       1.27228900      -3.49547700
N        0.56998000       1.84114000       6.81197000      -1.09338200      -0.00728700       6.24018500
N        0.11077000       0.23491000       9.62406000      -0.82321800      -0.60067600      -6.62594800
Mo       1.52511000       1.02433000      10.61004000       0.88812400       0.23910300       9.99303100
7
Lattice="2.911223558 0.0 0.0 -1.41251505 2.461869439 0.0 0.113343958 -0.462132944 21.584164017" Properties=species:S:1:pos:R:3:force:R:3 Config_type=turn-17 Weight=1.0 Energy=-39.323073 Virial="45.67625 45.74344 -17.96669 45.74344 55.87559 -27.92309 -17.96669 -27.92309 18.09193" pbc="T T T"
Si       1.45481000       1.97531000      13.92022000      59.41392500      69.73909600     -40.89556400
Si      -1.22653000       2.07868000       7.84814000      10.57416900       6.90095100       2.48562900
N        0.81595000       1.23624000      14.35822000     -59.49879900     -69.36835600      38.30360200
N        0.09584000      -0.20812000      11.98256000      -1.43802900      -1.03535800       4.75877400
N        0.60925000       1.35481000       7.16521000     -11.20821400      -7.18748800      -2.44599500
N        1.59061000       2.05435000       9.59712000      -0.42118600       2.66373300      -1.97632700
Mo       1.46393000       0.55570000      10.81322000       2.57813500      -1.71257900      -0.23011800
7
Lattice="2.777778518 0.024669803 -0.147449617 -1.424379775 2.492392885 -1.011973012 0.070406187 0.02239477 20.459870958" Properties=species:S:1:pos:R:3:force:R:3 Config_type=train-10 Weight=1.0 Energy=-54.244294 Virial="22.35035 1.41466 2.56423 1.41466 18.33895 27.57612 2.56423 27.57612 8.38183" pbc="T T T"
Si       0.02171000       1.68426000      12.46565000      -0.04061900      -1.87961100       2.99210700
Si       0.00134000       1.67778000       6.54662000       0.48235400       2.19291300      -1.24052100
N        1.42418000       0.86222000      13.25464000       0.11128100       6.16982500      -0.14003900
N        0.01577000       1.68237000      10.73877000      -0.00548800       5.83832300      -0.14791100
N        1.40037000       0.85465000       6.33399000      -1.09379000      -4.40166600      -1.48733200
N        0.00729000       1.67967000       8.27349000      -1.34460500      -3.18109600      -2.90317800
Mo       1.38860000       2.52826000       9.07051000       1.89086700      -4.73868900       2.92687400
7
Lattice="2.846013758 0.0 0.0 -1.392968059 2.5523638 0.0 0.21054829 -0.40422497 20.745403422" Properties=species:S:1:pos:R:3:force:R:3 Config_type=turn-75 Weight=1.0 Energy=-42.552615 Virial="67.4013 -10.40018 33.55928 -10.40018 7.61641 3.12671 33.55928 3.12671 45.14152" pbc="T T T"
Si       0.20797000      -0.01879000      13.06524000       2.53323700       2.79528400      25.58873200
Si       2.75861000      -0.01576000       7.45109000      56.93747600     -12.28102400      22.88650400
N        1.59358000       0.17824000      13.99200000       0.99788300       0.68373200      -1.66662000
N        1.40967000       2.31067000      11.75208000      -3.12173600      -4.03065400     -26.14698700
N        1.70794000       0.21026000       6.99380000     -56.71159500      11.96593400     -22.88063800
N        0.17712000      -0.17794000       9.24050000      -2.09807700      -3.45992500      -8.66983500
Mo       1.53769000       0.49055000      10.21341000       1.46281300       4.32665400      10.88884400
7
Lattice="2.845511356 0.0 -0.0 -1.490773278 2.463920908 -0.0 0.283427125 -0.255523668 20.790435459" Properties=species:S:1:pos:R:3:force:R:3 Config_type=turn-74 Weight=1.0 Energy=-49.045263 Virial="54.44572 -15.42743 12.03713 -15.42743 15.26448 -0.23122 12.03713 -0.23122 23.55019" pbc="T T T"
Si       1.58927000       2.20259000      13.64030000      14.89636500      -8.43556000      -8.32134200
Si       2.79088000      -0.03107000       7.57595000      29.97881100      -9.76459600       4.04098400
N        1.79594000       0.19973000      13.91399000     -15.33944100       8.37091200       6.27019500
N        1.50647000       2.05285000      11.64711000       1.97075100       3.99339100       7.61854700
N        1.71960000       0.33408000       6.96118000     -30.31178800      10.47189600     -13.71420700
N        1.30763000       2.30783000       9.08388000       2.78632200      -1.30535200      11.58603300
Mo       1.69336000       0.57956000      10.57328000      -3.98101900      -3.33069000      -7.48020900
7
Lattice="2.855776302 -0.0 -0.0 -1.432203454 2.592247169 0.0 -0.247555132 -0.349640102 21.303651929" Properties=species:S:1:pos:R:3:force:R:3 Config_type=turn-30 Weight=1.0 Energy=-42.360644 Virial="49.43476 32.48846 12.61175 32.48846 42.17448 11.34743 12.61175 11.34743 18.24263" pbc="T T T"
Si       1.32548000       2.18987000      13.61246000      11.26933500      13.78486600      -7.75852100
Si       1.27250000       2.36421000       7.60791000      37.11380500      40.74494500      26.57861700